LAMMPS (7 Aug 2019)
Created orthogonal box = (0 0 0) to (18.5604 42.4 40)
  2 by 4 by 4 MPI processor grid
Reading data file ...
  orthogonal box = (0 0 -0.171776) to (18.5604 42.4 41.6292)
  2 by 4 by 4 MPI processor grid
  reading atoms ...
  2577 atoms
  reading velocities ...
  2577 velocities
  read_data CPU = 0.0111514 secs
719 atoms in group boundary
1149 atoms in group Fe
1428 atoms in group O
312 atoms in group Feb
407 atoms in group Ob
Reading potential file ffield.reax.Fe_O_C_H with DATE: 2011-02-18
Neighbor list info ...
  update every 1 steps, delay 5 steps, check yes
  max neighbors/atom: 2000, page size: 100000
  master list distance cutoff = 10.3
  ghost atom cutoff = 10.3
  binsize = 5.15, bins = 4 9 9
  2 neighbor lists, perpetual/occasional/extra = 2 0 0
  (1) pair reax/c, perpetual
      attributes: half, newton off, ghost
      pair build: half/bin/newtoff/ghost
      stencil: half/ghost/bin/3d/newtoff
      bin: standard
  (2) fix qeq/reax, perpetual, copy from (1)
      attributes: half, newton off, ghost
      pair build: copy
      stencil: none
      bin: none
Setting up Verlet run ...
  Unit style    : real
  Current step  : 0
  Time step     : 0.2
Per MPI rank memory allocation (min/avg/max) = 36.41 | 45.46 | 53.73 Mbytes
Step PotEng c_T c_avesqdispFe1 c_avesqdispFe2 c_avesqdispFe3 c_avesqdispFe4 c_avesqdispO1 c_avesqdispO2 c_avesqdispO3 c_avesqdispO4 
       0   -294261.51         1300            0            0            0            0            0            0            0            0 
      10   -294225.72         1300 7.8387475e-05 8.6042958e-05 8.1279187e-05 0.00024570962 0.00026631381 0.00026396294 0.0002774349 0.00080771166 
      20   -294128.07         1300 0.00031402571 0.00034557756 0.00032573045 0.00098533371 0.0010542823  0.001051392 0.0011091876 0.0032148619 
      30   -293998.42         1300 0.00070782204 0.00078098801 0.00074606664 0.0022348767 0.0023421516 0.0023524666 0.0024876401 0.0071822584 
      40   -293842.62         1300 0.0012605492  0.001394052 0.0013213389 0.0039759402 0.0041007016 0.0041501676 0.0043947833  0.012645652 
      50   -293674.21         1300 0.0019727029 0.0021854629 0.0020612675 0.0062194334 0.0062946774 0.0064200462 0.0068007921  0.019515516 
      60   -293498.47         1300 0.0028434373 0.0031545216 0.0029755501 0.0089735089 0.0088854404 0.0091286786 0.0096636024  0.027677721 
      70   -293320.99         1300 0.0038713126 0.0042988143 0.0040334095  0.012203536  0.011829531  0.012231949   0.01293336   0.03699484 
      80   -293135.69         1300  0.005054508 0.0056123792 0.0052342026   0.01590109  0.015077083  0.015678803  0.016555105  0.047310991 
      90    -292939.7         1300 0.0063905625 0.0070869763 0.0065801434  0.020057682  0.018578318  0.019418511  0.020473876  0.058470705 
     100   -292735.89         1300 0.0078758247 0.0087129745 0.0080605166  0.024649316  0.022291954  0.023400555  0.024633117  0.070325626 
     110   -292544.18         1300  0.009505477  0.010479301 0.0096474697  0.029632248  0.026179552  0.027570797  0.028974883  0.082725231 
     120   -292361.55         1300  0.011273634  0.012373569  0.011374389  0.035021591  0.030195501  0.031880899   0.03343919  0.095515591 
     130   -292205.11         1300  0.013174727   0.01438368  0.013204039  0.040762446  0.034293977  0.036285284   0.03797314    0.1085524 
     140   -292076.52         1300  0.015199602  0.016495725  0.015139939  0.046835266  0.038428039  0.040739044  0.042528015    0.1216951 
     150   -291969.43         1300   0.01733528  0.018696048   0.01715549  0.053186819  0.042554346  0.045200336  0.047058475   0.13481316 
     160   -291882.02         1300  0.019567484  0.020972928  0.019253653  0.059794065  0.046634896  0.049626637  0.051521214   0.14778275 
     170   -291788.09         1300  0.021880707  0.023315233  0.021413182  0.066609123  0.050637268  0.053977983  0.055871711   0.16048696 
     180   -291704.66         1300  0.024262713  0.025712262  0.023618582  0.073593558  0.054529276  0.058218265  0.060073292   0.17282083 
     190   -291625.95         1300   0.02669643  0.028151945  0.025868632  0.080717008  0.058274153   0.06230696  0.064089246   0.18467036 
     200    -291563.4         1300   0.02916357  0.030624924  0.028217583  0.088006077  0.061840849  0.066208982  0.067889913   0.19593974 
     210   -291516.02         1300  0.031648116  0.033120355  0.030520952  0.095289423  0.065207079  0.069898521  0.071441694   0.20654729 
     220   -291468.55         1300  0.034140135  0.035624058   0.03288308   0.10264727  0.068366929  0.073369353  0.074709008   0.21644529 
     230   -291442.56         1300  0.036631019  0.038122812  0.035202725   0.10995656  0.071308254  0.076609377  0.077677442   0.22559507 
     240   -291442.44    1300.0136  0.039106371  0.040606295  0.037506084   0.11721875  0.074005754  0.079594545  0.080342155   0.23394245 
     250   -291458.89         1300  0.041556078  0.043068743  0.039815584   0.12444041  0.076446108   0.08230614   0.08269818   0.24145043 
     260    -291482.3         1300  0.043974927  0.045502895  0.042110395   0.13158822  0.078631201  0.084728777  0.084749491   0.24810947 
     270    -291506.3         1300   0.04635784   0.04790251  0.044381298   0.13864165  0.080577383  0.086856789  0.086503128    0.2539373 
     280   -291531.66         1300  0.048697164  0.050263775  0.046639607   0.14560055  0.082296127  0.088682359  0.087973418    0.2589519 
     290   -291554.98         1300  0.050982229  0.052578452  0.048864509   0.15242519  0.083790527  0.090205727  0.089172535   0.26316879 
     300   -291578.39         1300  0.053204009  0.054838616  0.051091318   0.15913394  0.085080207  0.091435797  0.090105927   0.26662193 
     310   -291611.97         1300  0.055352358  0.057037697  0.053307115   0.16569717  0.086195502  0.092378736   0.09078505   0.26935929 
     320   -291641.65         1300  0.057419312  0.059170333  0.055506732   0.17209638  0.087156314  0.093050784    0.0912163    0.2714234 
     330   -291655.46         1300  0.059403524  0.061237187  0.057699782   0.17834049  0.087973608  0.093486645  0.091391864   0.27285212 
     340   -291667.19         1300  0.061302871  0.063236638  0.059838388    0.1843779   0.08866615  0.093720212  0.091312834    0.2736992 
     350    -291674.8    1300.9984  0.063114404   0.06516794  0.061960727   0.19024307   0.08925747   0.09378488  0.090984011   0.27402636 
     360   -291672.87    1300.7511  0.064838137  0.067039776  0.064004574   0.19588249  0.089760572  0.093712489  0.090423278   0.27389634 
     370   -291665.09    1299.7184  0.066476309  0.068852532  0.066162878   0.20149172  0.090183021  0.093527512  0.089669217   0.27337975 
     380      -291664    1299.5326  0.068033909  0.070598618  0.068093831   0.20672636  0.090538671  0.093253222  0.088761587   0.27255348 
     390   -291662.32    1299.3122  0.069514282  0.072270723  0.070310957   0.21209596  0.090847388  0.092912537  0.087748595   0.27150852 
     400   -291661.68    1299.2552  0.070919164  0.073865953  0.072123487    0.2169086   0.09112027  0.092532197  0.086669935    0.2703224 
     410   -291663.79    1299.4533   0.07224997  0.075383158  0.074338384   0.22197151  0.091351349  0.092142151  0.085561181   0.26905468 
     420   -291655.01         1300  0.073506137  0.076818503  0.076011495   0.22633613  0.091536791  0.091781269  0.084463362   0.26778142 
     430   -291636.76         1300  0.074683692  0.078176484  0.077610702   0.23047088  0.091668165  0.091483523  0.083410547   0.26656223 
     440   -291616.07         1300  0.075782877   0.07946522   0.07972138   0.23496948  0.091746113  0.091265877  0.082434854   0.26544684 
     450    -291594.6         1300   0.07681048  0.080690477  0.081186284   0.23868724  0.091776301  0.091140096  0.081570426   0.26448682 
     460   -291576.88         1300  0.077775828  0.081856157    0.0831231   0.24275508  0.091768571  0.091114182  0.080852308   0.26373506 
     470   -291572.26     1299.356  0.078680825  0.082954534  0.084437036   0.24607239  0.091738988  0.091191478  0.080318335    0.2632488 
     480   -291575.07    1299.6438  0.079531186   0.08397676  0.086157294   0.24966524  0.091700848  0.091363074  0.080007351   0.26307127 
     490   -291572.26    1299.2311  0.080340595  0.084917334  0.087315396   0.25257333  0.091661912  0.091618313  0.079934379    0.2632146 
     500   -291562.34         1300  0.081119523  0.085773528  0.088783032   0.25567608  0.091625647  0.091947192  0.080099859    0.2636727 
     510   -291553.74         1300  0.081875048  0.086546822  0.089795948   0.25821782  0.091596696  0.092339647   0.08050618   0.26444252 
     520   -291549.18    1299.4438    0.0826107  0.087245303  0.090958782   0.26081479  0.091564517  0.092788749  0.081135052   0.26548832 
     530   -291557.23     1300.518  0.083327619  0.087884667  0.091825744   0.26303803  0.091525988  0.093287739  0.081955658   0.26676939 
     540   -291558.84    1300.7333  0.084024339  0.088478975  0.092615597   0.26511891    0.0914846   0.09384813  0.082942972    0.2682757 
     550    -291562.6         1300  0.084695422   0.08904574  0.093308638    0.2670498  0.091441114   0.09447716  0.084073033   0.26999131 
     560   -291566.44    1300.5118  0.085341436  0.089598612  0.093946136   0.26888618  0.091408528  0.095159776  0.085322671   0.27189097 
     570   -291578.19         1300  0.085969187  0.090151181  0.094496221   0.27061659  0.091411098  0.095874185  0.086664738   0.27395002 
     580   -291590.45         1300  0.086583381  0.090710387  0.094976344   0.27227011  0.091472961  0.096604166  0.088076721   0.27615385 
     590   -291615.51         1300  0.087188451  0.091281834  0.096011059   0.27448134  0.091621285  0.097340567  0.089550168   0.27851202 
     600   -291639.46         1300  0.087783566  0.091862232  0.096340349   0.27598615  0.091888778  0.098084318  0.091085352   0.28105845 
     610   -291664.22         1300  0.088362285    0.0924533    0.0973205   0.27813609  0.092293127   0.09884249   0.09266358    0.2837992 
     620   -291689.12         1300  0.088925792   0.09306173  0.097513829   0.27950135  0.092838588  0.099616784  0.094256834   0.28671221 
     630   -291714.29         1300  0.089478746  0.093687056  0.098400987   0.28156679  0.093531679   0.10040311  0.095845528   0.28978032 
     640   -291733.39         1300  0.090025233  0.094322683  0.098474525   0.28282244  0.094377024    0.1011975  0.097423142   0.29299766 
     650   -291736.22    1300.4024  0.090569382  0.094959351  0.098495822   0.28402456   0.09537295   0.10200036  0.098995261   0.29636857 
     660   -291750.11         1300  0.091116052  0.095589715  0.099156762   0.28586253   0.09650506   0.10281704   0.10056886   0.29989095 
     670   -291769.34         1300   0.09166857  0.096205502  0.099091954   0.28696603  0.097751581   0.10365576   0.10214291   0.30355025 
     680   -291783.04         1300  0.092228239  0.096799822  0.099684711   0.28871277  0.099091734   0.10452699   0.10371156   0.30733028 
     690   -291788.03    1300.6267  0.092796816  0.097369226  0.099557903   0.28972395   0.10050067   0.10543496   0.10527742   0.31121306 
     700    -291791.9         1300  0.093377605  0.097912312   0.09999661   0.29128653   0.10195357   0.10637925   0.10683641   0.31516924 
     710   -291787.73    1299.4618  0.093968954  0.098428463  0.099820372   0.29221779   0.10342827   0.10735307   0.10837609   0.31915743 
     720   -291772.81         1300  0.094570587  0.098918754   0.10000669   0.29349603   0.10490764   0.10834174    0.1098627   0.32311208 
     730   -291759.49         1300  0.095184155  0.099391574  0.099796521   0.29437225   0.10637291   0.10933382    0.1112651   0.32697183 
     740   -291741.16         1300   0.09580797  0.099854103  0.099572164   0.29523424    0.1077993   0.11032405   0.11256781   0.33069116 
     750   -291711.54         1300  0.096445226   0.10030505  0.099836325    0.2965866   0.10916296   0.11130402   0.11376209   0.33422908 
     760   -291680.88         1300  0.097102295   0.10074315  0.099598258   0.29744371   0.11044114   0.11226222   0.11483477   0.33753813 
     770   -291649.41         1300  0.097780143   0.10116773  0.099846166   0.29879404   0.11164104   0.11318854   0.11578669   0.34061627 
     780    -291628.3         1300  0.098478147    0.1015815  0.099633285   0.29969293    0.1127822    0.1140747   0.11662765   0.34348455 
     790   -291611.74         1300  0.099197756   0.10198826  0.099644299   0.30083031   0.11387507    0.1149132   0.11736247   0.34615073 
     800   -291587.58         1300  0.099943578   0.10238635  0.099506494   0.30183642   0.11492994   0.11568833   0.11799542   0.34861369 
     810   -291565.04         1300    0.1007163   0.10277433  0.099411519   0.30290214   0.11596121   0.11637774   0.11853584   0.35087479 
     820   -291545.44         1300   0.10150278    0.1031449  0.099236975   0.30388466   0.11698705   0.11696635   0.11899412   0.35294752 
     830   -291533.98         1300   0.10229004   0.10349702   0.09922836   0.30501542   0.11801385   0.11744818   0.11937176   0.35483379 
     840   -291517.36         1300   0.10307286   0.10383662  0.098896956   0.30580644   0.11903948   0.11782531   0.11966151   0.35652631 
     850   -291497.58         1300   0.10384746   0.10417047  0.098977769    0.3069957   0.12006533    0.1180956   0.11988219   0.35804312 
     860   -291487.98         1300   0.10460549   0.10450254  0.098970043   0.30807808    0.1210838   0.11824905   0.12003595    0.3593688 
     870   -291473.84         1300   0.10533604   0.10482867   0.09914232   0.30930703   0.12206949   0.11827766   0.12011774   0.36046489 
     880   -291471.28    1299.6488    0.1060337    0.1051466  0.099504761   0.31068507   0.12300704   0.11817674     0.120129   0.36131277 
     890   -291484.68         1300   0.10669484   0.10545873  0.099756243   0.31190981   0.12388645   0.11794543   0.12007757   0.36190945 
     900   -291502.73         1300   0.10731732   0.10576816   0.10024162    0.3133271   0.12470161   0.11759202   0.11997516   0.36226879 
     910   -291523.96         1300   0.10789614   0.10608222   0.10055148   0.31452983   0.12545482   0.11714225   0.11982353    0.3624206 
     920   -291519.51    1299.4322   0.10842368   0.10641116    0.1011032   0.31593804   0.12614603   0.11663958   0.11961516   0.36240077 
     930      -291517    1299.0825   0.10888877   0.10675674   0.10143086   0.31707637   0.12677293   0.11612713   0.11934582   0.36224588 
     940   -291510.13         1300   0.10928664   0.10711239   0.10204695   0.31844598   0.12735021   0.11562592   0.11902637   0.36200251 
     950   -291501.56         1300   0.10962067   0.10747827   0.10236441   0.31946334   0.12789011   0.11515807   0.11867226   0.36172044 
     960   -291494.94     1299.152   0.10989261   0.10785119   0.10266944   0.32041324   0.12840728   0.11475299   0.11828898   0.36144925 
     970   -291487.02         1300   0.11010443   0.10822763   0.10349195   0.32182401   0.12890734   0.11443539   0.11787676   0.36121949 
     980   -291478.49         1300   0.11026135   0.10860706   0.10377148    0.3226399   0.12939203   0.11420871    0.1174633   0.36106405 
     990   -291468.92         1300   0.11037067   0.10898975   0.10479727   0.32415768   0.12986324   0.11407592   0.11706327   0.36100243 
    1000   -291460.73         1300   0.11044055   0.10937732   0.10506738   0.32488526   0.13031824   0.11404135   0.11667416   0.36103374 
    1010   -291452.05         1300   0.11047979   0.10977448   0.10623619   0.32649046     0.130748   0.11410643   0.11628378    0.3611382 
    1020   -291446.37    1299.2649   0.11049665   0.11018675   0.10650222   0.32718562    0.1311482   0.11426061   0.11587854   0.36128735 
    1030   -291436.35         1300   0.11050133   0.11060901   0.10678236    0.3278927   0.13151287   0.11449251   0.11545242   0.36145779 
    1040   -291423.29         1300   0.11050541    0.1110383   0.10796112   0.32950483   0.13183181   0.11479725   0.11499971   0.36162877 
    1050   -291418.16    1299.3724   0.11051866    0.1114725   0.10825796   0.33024912   0.13210641   0.11516559   0.11452523   0.36179724 
    1060   -291410.32         1300    0.1105473   0.11190892   0.10907531   0.33153153   0.13234803   0.11558208   0.11403476   0.36196487 
    1070   -291408.07    1299.6708   0.11059846   0.11234558   0.10938078   0.33232482   0.13256919   0.11603222   0.11354322   0.36214463 
    1080   -291416.96    1300.8253   0.11067819   0.11277575   0.10967284   0.33312678   0.13278657   0.11650399   0.11307069   0.36236124 
    1090   -291438.14         1300   0.11079053    0.1131927   0.11000088   0.33398411   0.13302308   0.11698348   0.11260182   0.36260837 
    1100   -291465.19         1300   0.11093458   0.11358881   0.11034973   0.33487312    0.1333005    0.1174434   0.11213388   0.36287778 
    1110    -291488.5         1300   0.11110679   0.11396295   0.11018071   0.33525045   0.13361824   0.11787387   0.11167291   0.36316502 
    1120   -291493.24    1300.6187   0.11130113   0.11432223   0.11057866   0.33620202   0.13396537   0.11828546   0.11121959   0.36347041 
    1130   -291480.52         1300   0.11151162   0.11466235   0.11014868   0.33632265   0.13433352   0.11868308   0.11078234   0.36379894 
    1140   -291462.23         1300   0.11173639   0.11497298    0.1105832   0.33729257   0.13471137   0.11907107   0.11037228   0.36415472 
    1150   -291433.86         1300    0.1119766    0.1152484   0.11012789   0.33735289   0.13508514   0.11944753   0.10999703    0.3645297 
    1160   -291406.36         1300   0.11223347   0.11548617   0.11057036      0.33829   0.13544033   0.11980792   0.10966353   0.36491178 
    1170   -291380.11         1300   0.11250763   0.11568386   0.11008012   0.33827161   0.13575868   0.12014728   0.10937944   0.36528541 
    1180   -291361.33         1300    0.1127975   0.11584067   0.11050943    0.3391476   0.13600864   0.12046265   0.10915142   0.36562272 
    1190   -291357.71    1299.5359   0.11309645   0.11596436   0.11092291   0.33998372   0.13618272   0.12075571    0.1089885   0.36592693 
    1200    -291368.5    1300.9566   0.11339551   0.11607058   0.11034505   0.33981114   0.13629472   0.12101857   0.10890143   0.36621472 
    1210   -291389.91         1300   0.11368859   0.11617042   0.11072319    0.3405822   0.13635184   0.12124731   0.10890651   0.36650567 
    1220   -291423.76         1300   0.11397363   0.11626437   0.11052245   0.34076045   0.13636883   0.12143851   0.10902251   0.36682985 
    1230   -291454.96         1300   0.11424621   0.11635437   0.11088614   0.34148673   0.13635194   0.12158396   0.10925708   0.36719298 
    1240    -291472.8         1300   0.11450068   0.11645039   0.11123976   0.34219083   0.13627769    0.1216733    0.1096122   0.36756319 
    1250   -291502.44         1300   0.11474031   0.11655875   0.11187488   0.34317393   0.13614575    0.1217079   0.11008956    0.3679432 
    1260    -291541.3         1300   0.11496901    0.1166878   0.11219518   0.34385199   0.13597159   0.12170294   0.11068955   0.36836408 
    1270   -291567.99         1300   0.11519088   0.11684659    0.1127003   0.34473777   0.13574903    0.1216841    0.1114036   0.36883672 
    1280   -291582.03         1300   0.11541447   0.11704209   0.11296085   0.34541741   0.13547885   0.12166341   0.11223504    0.3693773 
    1290   -291599.12         1300   0.11565013   0.11727406    0.1133431   0.34626729   0.13516691   0.12165778   0.11318882   0.37001351 
    1300   -291627.02         1300   0.11590209   0.11753456   0.11352353   0.34696019   0.13480487   0.12170576   0.11426764   0.37077827 
    1310   -291650.23         1300   0.11616839   0.11782119   0.11365521   0.34764479   0.13438398   0.12182727   0.11547018   0.37168142 
    1320   -291675.23         1300   0.11644842   0.11812973   0.11394124   0.34851939   0.13392016   0.12202466   0.11679198   0.37273681 
    1330   -291701.69         1300   0.11674592   0.11845314   0.11397725    0.3491763   0.13344077    0.1222923   0.11821498   0.37394806 
    1340   -291728.35         1300   0.11706414   0.11878836   0.11415541    0.3500079   0.13295696   0.12263197     0.119704   0.37529293 
    1350    -291753.9         1300   0.11740129   0.11913043   0.11410963   0.35064135   0.13248141   0.12304911   0.12121077   0.37674128 
    1360   -291787.94         1300   0.11775335   0.11947577   0.11416642   0.35139554   0.13203578   0.12353746   0.12269269   0.37826593 
    1370   -291818.57         1300    0.1181177   0.11982253   0.11406546    0.3520057   0.13164451   0.12407767   0.12412487   0.37984706 
    1380   -291834.25         1300   0.11849071   0.12016357   0.11405687   0.35271116   0.13131933   0.12464872   0.12548079   0.38144884 
    1390   -291835.66     1300.217   0.11887257   0.12048572   0.11393934   0.35329764   0.13105953   0.12522919   0.12671576   0.38300448 
    1400    -291830.1    1299.4828   0.11926954   0.12078076   0.11392783   0.35397813   0.13086304   0.12580348   0.12778701   0.38445352 
    1410   -291808.87         1300   0.11968935   0.12105599   0.11382076    0.3545661   0.13074128   0.12636178   0.12868392   0.38578698 
    1420   -291801.41    1299.0208   0.12013709   0.12132149   0.11371807   0.35517666   0.13071208   0.12687954   0.12941516   0.38700678 
    1430      -291808    1299.9106   0.12061279   0.12158095   0.11373781   0.35593154   0.13078465   0.12734103   0.12999507   0.38812075 
    1440   -291820.16         1300   0.12111478   0.12183893   0.11364236   0.35659607   0.13096305   0.12774445   0.13044821   0.38915572 
    1450   -291832.44         1300   0.12163833   0.12210148   0.11357886   0.35731867   0.13124628     0.128095   0.13079821   0.39013949 
    1460   -291838.41    1300.7579    0.1221753   0.12237218   0.11351008   0.35805756   0.13162484   0.12839746   0.13106158   0.39108388 
    1470   -291827.54    1299.3912   0.12271519    0.1226505   0.11337705   0.35874274    0.1320969   0.12865221   0.13126076   0.39200987 
    1480   -291802.57         1300   0.12325198   0.12292512   0.11338294   0.35956005   0.13266703   0.12886009   0.13141268   0.39293979 
    1490   -291770.18         1300   0.12378488   0.12318632   0.11343299   0.36040419   0.13332989   0.12902732   0.13153132   0.39388852 
    1500   -291744.76         1300   0.12431212   0.12343352   0.11331852   0.36106416   0.13406106   0.12915239   0.13164089   0.39485433 
    1510    -291731.9         1300   0.12483384   0.12366517   0.11344796   0.36194698   0.13482554   0.12923617   0.13176932   0.39583103 
    1520   -291708.77         1300   0.12535373   0.12387857   0.11331778   0.36255008   0.13560054   0.12929866   0.13193145   0.39683065 
    1530   -291691.95         1300   0.12587399   0.12406947   0.11349439   0.36343786    0.1363738   0.12936377   0.13213384   0.39787141 
    1540   -291681.23         1300   0.12639384   0.12423752   0.11330972   0.36394108    0.1371361   0.12944654   0.13238367    0.3989663 
    1550   -291665.78         1300    0.1269145   0.12438948   0.11353208   0.36483606   0.13788165   0.12956217   0.13269802   0.40014184 
    1560   -291640.28         1300   0.12743521   0.12452796   0.11378039   0.36574355   0.13860776   0.12971672   0.13307928   0.40140376 
    1570   -291618.12         1300   0.12795324   0.12465098   0.11353631   0.36614053   0.13932075    0.1299092   0.13350897   0.40273892 
    1580   -291597.43         1300   0.12846449   0.12476019   0.11380892    0.3670336   0.14002751   0.13012337    0.1339667   0.40411759 
    1590   -291575.54         1300   0.12896491   0.12485928   0.11353773   0.36736193   0.14074175   0.13034233   0.13442659   0.40551067 
    1600   -291551.03         1300   0.12945092   0.12494465    0.1138014   0.36819696   0.14148535   0.13057303   0.13486021   0.40691859 
    1610   -291528.75         1300    0.1299197    0.1250114   0.11373976   0.36867086   0.14227892   0.13081439   0.13523983   0.40833314 
    1620   -291500.28         1300   0.13036813   0.12505541   0.11395703   0.36938058   0.14313534   0.13104269   0.13553743   0.40971546 
    1630   -291462.16         1300   0.13079417   0.12507522   0.11526935   0.37113873   0.14406426   0.13122791   0.13573142   0.41102359 
    1640   -291421.85         1300   0.13119849   0.12507524    0.1154682   0.37174194   0.14506757   0.13134749   0.13580908   0.41222414 
    1650   -291390.75         1300   0.13158211    0.1250612    0.1169374   0.37358071   0.14614651   0.13138219   0.13576436   0.41329307 
    1660   -291369.14         1300   0.13194859   0.12503073   0.11717439   0.37415371   0.14731244   0.13131008   0.13559424   0.41421676 
    1670   -291356.51         1300   0.13230448   0.12497457    0.1188765   0.37615554   0.14857554   0.13111888     0.135299   0.41499342 
    1680   -291342.12         1300   0.13264999   0.12488777   0.11917081   0.37670857   0.14993649   0.13083043   0.13489047   0.41565739 
    1690   -291337.32    1299.4066   0.13298693   0.12476718   0.12096211   0.37871622   0.15139387   0.13045192   0.13439653   0.41624232 
    1700   -291338.57    1299.6078    0.1333059   0.12461975   0.12127327   0.37919892   0.15293011   0.12999011   0.13385226   0.41677248 
    1710    -291349.5         1300   0.13359829   0.12446114   0.12159418   0.37965362   0.15451869    0.1294669   0.13328949   0.41727509 
    1720    -291365.6         1300   0.13385766   0.12430449   0.12313832   0.38130047   0.15613118   0.12890609   0.13274033    0.4177776 
    1730   -291383.98         1300    0.1340771   0.12415857   0.12347944    0.3817151   0.15773215   0.12832179   0.13224317    0.4182971 
    1740   -291408.47         1300   0.13425811   0.12402971   0.12433537   0.38262319   0.15929299   0.12770895   0.13183463   0.41883657 
    1750   -291437.26         1300   0.13440365   0.12392469   0.12470231   0.38303066   0.16078957    0.1270572   0.13153717   0.41938394 
    1760   -291471.59         1300   0.13451287    0.1238512   0.12513603    0.3835001   0.16218706   0.12637592   0.13137099   0.41993397 
    1770   -291511.76         1300   0.13459098   0.12380878   0.12552631   0.38392607   0.16345986   0.12567201   0.13135798   0.42048985 
    1780    -291559.4         1300   0.13464197   0.12379267   0.12604278   0.38447742   0.16459075   0.12495345   0.13151152   0.42105572 
    1790   -291596.95         1300   0.13466672   0.12379691   0.12646185   0.38492549   0.16556678    0.1242238   0.13183441   0.42162499 
    1800   -291596.98    1299.9944    0.1346681   0.12381328   0.12691287   0.38539425   0.16638257   0.12348178   0.13233193   0.42219627 
    1810   -291575.87         1300   0.13464445   0.12384615    0.1273528    0.3858434   0.16702084   0.12274154   0.13300119   0.42276356 
    1820   -291555.06         1300   0.13459117   0.12391007   0.12787937   0.38638061   0.16746493   0.12202443   0.13382629   0.42331564 
    1830   -291543.93         1300   0.13450689   0.12402172   0.12819479   0.38672341   0.16771919   0.12135046   0.13477908   0.42384873 
    1840   -291527.59         1300   0.13439806   0.12418709   0.12876905    0.3873542   0.16778707   0.12073777   0.13582295   0.42434779 
    1850   -291495.11         1300   0.13427594    0.1244008   0.12892793   0.38760467   0.16766667   0.12020009    0.1369196   0.42478635 
    1860   -291458.83         1300   0.13414946   0.12465095   0.12953737   0.38833778   0.16736443    0.1197496   0.13804062   0.42515464 
    1870   -291424.12         1300   0.13402484   0.12492129   0.13017419   0.38912031   0.16691961    0.1193983   0.13916293   0.42548084 
    1880   -291402.25         1300   0.13390698   0.12520397   0.13025337   0.38936432   0.16637231   0.11914231   0.14026622   0.42578083 
    1890   -291374.86         1300   0.13379759   0.12549498   0.13094692   0.39023949   0.16574058   0.11898068    0.1413409   0.42606215 
    1900   -291350.51         1300   0.13369577   0.12579763   0.13098736   0.39048076   0.16502935   0.11891241   0.14238519   0.42632695 
    1910   -291332.23         1300   0.13359916   0.12612046   0.13173025   0.39144987   0.16423393   0.11893384   0.14339883    0.4265666 
    1920   -291303.21         1300   0.13350662   0.12646539   0.13155243   0.39152445   0.16333659   0.11905133   0.14439021   0.42677814 
    1930   -291281.26         1300   0.13342406   0.12682809   0.13231485     0.392567   0.16233307   0.11925933   0.14536208   0.42695447 
    1940   -291260.79         1300   0.13335293   0.12720117    0.1330817    0.3936358   0.16123725   0.11954762   0.14631517   0.42710004 
    1950   -291241.93         1300   0.13329652   0.12757432    0.1327956   0.39366643   0.16007077   0.11988629   0.14725604   0.42721311 
    1960   -291230.47         1300   0.13326005   0.12793544    0.1335648   0.39476029   0.15886538   0.12024276   0.14818845   0.42729658 
    1970   -291224.24    1299.2508   0.13324603   0.12827933   0.13321817   0.39474353   0.15764523   0.12059609   0.14910289   0.42734421 
    1980   -291205.17         1300   0.13325205   0.12860742   0.13395765   0.39581712   0.15642838   0.12093334   0.14998528   0.42734701 
    1990   -291190.58         1300   0.13327504   0.12893519   0.13358614   0.39579637   0.15521527   0.12125048   0.15082579   0.42729154 
    2000   -291175.21         1300   0.13331702   0.12927181   0.13422254   0.39681137   0.15400737   0.12153702   0.15161305   0.42715743 
    2010   -291157.82         1300   0.13338863   0.12960494   0.13480942   0.39780299   0.15282168   0.12176225   0.15233282   0.42691675 
    2020   -291137.43         1300   0.13349312   0.12992333   0.13448439   0.39790083   0.15166972   0.12189091    0.1529832   0.42654383 
    2030   -291120.86         1300   0.13362656   0.13022642   0.13499455   0.39884753   0.15054475   0.12190528   0.15356736    0.4260174 
    2040   -291101.53         1300   0.13378275   0.13051484   0.13474944   0.39904704   0.14942392   0.12180439   0.15407205   0.42530035 
    2050   -291090.67         1300    0.1339542   0.13077891    0.1352008   0.39993391   0.14829212    0.1215919   0.15447983   0.42436385 
    2060   -291079.62         1300   0.13413597   0.13100831   0.13494965   0.40009393   0.14714573   0.12127858     0.154768   0.42319231 
    2070      -291049         1300   0.13432301   0.13120103    0.1353555   0.40087954   0.14597444   0.12087909   0.15491134   0.42176487 
    2080   -291012.77         1300   0.13451164   0.13136176    0.1357446   0.40161799   0.14476779   0.12040355   0.15488868   0.42006002 
    2090   -290983.79         1300   0.13470145   0.13149764   0.13545822    0.4016573   0.14353162   0.11986537   0.15468609   0.41808308 
    2100    -290961.3         1300    0.1348917   0.13161199   0.13580092   0.40230461   0.14228709   0.11928775   0.15429492   0.41586976 
    2110   -290936.95         1300   0.13507839   0.13171433   0.13555188   0.40234461   0.14106286   0.11870402   0.15372522    0.4134921 
    2120    -290933.4    1299.5597   0.13525515   0.13181945    0.1358392    0.4029138   0.13988567   0.11814128   0.15300328   0.41103024 
    2130   -290947.79         1300   0.13541834    0.1319306   0.13610657   0.40345551   0.13877671   0.11761823   0.15215928   0.40855421 
    2140   -290967.85         1300   0.13556922   0.13204047   0.13602521    0.4036349   0.13775246   0.11715047   0.15122532   0.40612825 
    2150   -290979.75         1300   0.13571058    0.1321472   0.13629195   0.40414974   0.13682732   0.11675352    0.1502384   0.40381924 
    2160   -290993.11         1300   0.13584815   0.13225583   0.13635668   0.40446065   0.13601626   0.11643724   0.14923776   0.40169126 
    2170   -291008.18         1300   0.13598317    0.1323727   0.13662093   0.40497681   0.13533139   0.11620261   0.14826561   0.39979961 
    2180   -291016.05         1300   0.13611421   0.13250411   0.13672284   0.40534115   0.13477967   0.11604722   0.14735848   0.39818537 
    2190   -291035.78         1300   0.13623873   0.13265707   0.13696538   0.40586118   0.13436037   0.11596876   0.14653423   0.39686336 
    2200   -291064.97         1300   0.13635254   0.13283726   0.13719427   0.40638407   0.13407677   0.11596253   0.14579947   0.39583877 
    2210    -291095.7         1300   0.13644972   0.13304759   0.13727604   0.40677336   0.13393975   0.11602498   0.14515869   0.39512342 
    2220   -291120.54         1300   0.13652644   0.13328335   0.13746666   0.40727645    0.1339601    0.1161503   0.14460915   0.39471955 
    2230   -291147.22         1300   0.13658212    0.1335347   0.13754314   0.40765997   0.13414499   0.11633255   0.14413721   0.39461475 
    2240   -291154.19    1300.9338   0.13662579   0.13378829   0.13767577   0.40808985   0.13449602   0.11655603    0.1437381   0.39479015 
    2250   -291152.54    1300.6994   0.13666464   0.13404161   0.13777499   0.40848123   0.13499694   0.11679068   0.14342526   0.39521288 
    2260   -291146.44    1299.8859   0.13669612   0.13429673    0.1377562   0.40874905   0.13561609   0.11701119   0.14320771   0.39583498 
    2270   -291129.86         1300   0.13671263   0.13455354   0.13777356   0.40903973   0.13631058   0.11719833    0.1430864   0.39659531 
    2280   -291099.16         1300    0.1367106   0.13481406   0.13769293   0.40921758   0.13704254    0.1173404   0.14304663   0.39742957 
    2290    -291069.6         1300   0.13668964   0.13508303   0.13761496   0.40938764   0.13779288   0.11742767   0.14306514   0.39828569 
    2300      -291037         1300   0.13665438   0.13536688   0.13786333   0.40988459    0.1385385   0.11745974   0.14311598   0.39911422 
    2310   -291009.16         1300   0.13660735   0.13567502    0.1377051   0.40998747   0.13925783   0.11744991   0.14316782   0.39987557 
    2320   -290980.71         1300   0.13655023   0.13601716   0.13781854   0.41038593   0.13994012   0.11741976   0.14319097   0.40055084 
    2330   -290969.34         1300   0.13648014    0.1363998   0.13760148   0.41048141   0.14058312   0.11739833   0.14316919   0.40115064 
    2340   -290969.39    1300.0443   0.13638965   0.13681499   0.13756883   0.41077348   0.14117791   0.11742498   0.14309796   0.40170084 
    2350   -290955.92         1300   0.13627697   0.13725537   0.13730782   0.41084016   0.14170127   0.11752955   0.14298437    0.4022152 
    2360   -290948.09         1300   0.13614207   0.13771358   0.13702408   0.41087973   0.14213667   0.11773176   0.14283888   0.40270731 
    2370    -290955.7    1300.9331   0.13599138   0.13817692    0.1367975    0.4109658   0.14249231   0.11803565   0.14266418   0.40319214 
    2380   -290983.59         1300   0.13583436   0.13863265   0.13647718   0.41094419   0.14277692   0.11843304   0.14245969   0.40366964 
    2390   -291015.21         1300   0.13567709   0.13906968   0.13607122   0.41081799   0.14299541   0.11891156     0.142239   0.40414597 
    2400   -291054.49         1300   0.13552018   0.13947988   0.13572976   0.41072982   0.14315319   0.11945601   0.14203449   0.40464369 
    2410   -291097.85         1300    0.1353574   0.13985771   0.13517091   0.41038602   0.14325775   0.12004958   0.14188152   0.40518885 
    2420   -291123.77         1300   0.13517773   0.14020631   0.13481282   0.41019687   0.14330776   0.12068019   0.14182463   0.40581259 
    2430    -291137.4         1300   0.13497377   0.14053229   0.13411875   0.40962482   0.14328797    0.1213374    0.1419008   0.40652618 
    2440   -291136.98    1299.9167   0.13474613   0.14083374    0.1337322   0.40931208   0.14320273    0.1220023    0.1421297   0.40733473 
    2450   -291119.84         1300   0.13449342   0.14110594   0.13333413   0.40893349   0.14307356    0.1226519   0.14252595   0.40825141 
    2460   -291101.78         1300   0.13421623   0.14134726   0.13265642   0.40821991   0.14292294   0.12327078   0.14309466   0.40928839 
    2470   -291085.91         1300   0.13391855   0.14156451   0.13224109   0.40772415   0.14276298   0.12384345   0.14382404   0.41043047 
    2480   -291082.86    1299.6405   0.13360496   0.14176502   0.13170486   0.40707484    0.1425958   0.12434857   0.14468742   0.41163178 
    2490   -291090.23    1300.6414   0.13327884   0.14194247   0.13127019   0.40649149   0.14242219   0.12477038   0.14565296   0.41284553 
    2500   -291086.46    1300.1487   0.13294378   0.14208944   0.13082631   0.40585953   0.14224947   0.12509733   0.14669269   0.41403949 
    2510   -291077.47    1299.0167   0.13260355   0.14219607   0.13045535   0.40525497   0.14208368   0.12533776    0.1477687   0.41519014 
    2520   -291074.13         1300   0.13226654   0.14224682   0.12998657   0.40449993   0.14193264    0.1255105   0.14885722   0.41630037 
    2530   -291074.64    1300.1139   0.13193158   0.14223274   0.12967689   0.40384121   0.14178167   0.12563496   0.14995435   0.41737098 
    2540   -291079.41    1300.7692   0.13159789   0.14216139   0.12916922    0.4029285   0.14159909   0.12572742   0.15105517   0.41838168 
    2550   -291087.33         1300   0.13126899    0.1420445   0.12899269   0.40230618   0.14136153   0.12580097   0.15214172   0.41930422 
    2560   -291104.77         1300   0.13093572   0.14188683   0.12845659   0.40127913   0.14104508   0.12584873   0.15320042   0.42009422 
    2570   -291132.31         1300    0.1305928   0.14168955   0.12831508   0.40059743   0.14063848   0.12585571   0.15422145   0.42071563 
    2580    -291156.4         1300   0.13024528    0.1414558   0.12776483   0.39946592   0.14014288   0.12581596    0.1551915   0.42115034 
    2590   -291164.06    1300.9648   0.12989852   0.14118479   0.12720144   0.39828475   0.13956341   0.12571707   0.15608037   0.42136085 
    2600   -291162.18    1300.6996   0.12955042   0.14087083   0.12708929   0.39751054   0.13891194   0.12555734   0.15686388   0.42133317 
    2610   -291154.79    1299.7472   0.12920104   0.14050835   0.12648429   0.39619367   0.13820554   0.12535818   0.15754742   0.42111115 
    2620   -291147.93         1300     0.128862   0.14009802   0.12635206   0.39531208   0.13746205   0.12513485   0.15814957   0.42074647 
    2630   -291139.05         1300   0.12854971   0.13964758   0.12571707   0.39391436   0.13669787   0.12488649   0.15868463   0.42026899 
    2640   -291128.78         1300   0.12826992   0.13916097   0.12552216   0.39295305   0.13592554   0.12460451   0.15916985   0.41969991 
    2650   -291108.11         1300   0.12801994   0.13864894   0.12490765   0.39157653    0.1351476   0.12428991   0.15960138   0.41903888 
    2660   -291084.25         1300   0.12779625   0.13812837   0.12430889   0.39023351   0.13436723   0.12394424   0.15996225   0.41827372 
    2670   -291063.96         1300   0.12759617   0.13760973   0.12409514   0.38930104   0.13360062   0.12355947   0.16022827   0.41738836 
    2680   -291034.02         1300   0.12740972   0.13709575    0.1235306   0.38803607   0.13286699   0.12314382    0.1603703   0.41638111 
    2690   -291016.44         1300   0.12722142    0.1365914   0.12325833   0.38707115   0.13217945   0.12271426   0.16037243   0.41526613 
    2700    -291012.5    1299.5221   0.12700949   0.13610252   0.12272522   0.38583723   0.13155714   0.12226653   0.16023531   0.41405898 
    2710   -291017.96    1300.2578   0.12676149   0.13562606   0.12236298   0.38475054   0.13101425   0.12180293   0.15997177   0.41278895 
    2720   -291042.85         1300   0.12646985   0.13516071   0.12186845   0.38349901   0.13054791    0.1213367   0.15959677   0.41148138 
    2730   -291083.92         1300   0.12613705   0.13470502   0.12161693     0.382459   0.13014711   0.12088133   0.15912507   0.41015351 
    2740   -291121.87         1300   0.12576618   0.13425581   0.12117276   0.38119475   0.12980651   0.12044557   0.15856746   0.40881954 
    2750   -291152.61         1300     0.125351   0.13382116   0.12075444   0.37992659    0.1295182    0.1200359   0.15791973   0.40747384 
    2760   -291176.17         1300   0.12488966   0.13340925   0.12032726   0.37862616   0.12926192   0.11965683    0.1571808   0.40609955 
    2770   -291180.16    1300.5471   0.12438424   0.13303067    0.1199587   0.37737362   0.12901503   0.11929953   0.15634599   0.40466055 
    2780   -291169.72    1299.1898   0.12383465   0.13269612   0.11947752   0.37600829   0.12875723   0.11894967   0.15541123   0.40311813 
    2790   -291156.16         1300   0.12324201   0.13240995   0.11916716   0.37481912   0.12847174   0.11861708   0.15439359   0.40148241 
    2800    -291141.1         1300   0.12262142    0.1321701   0.11860938    0.3734009   0.12815512   0.11830574    0.1533022   0.39976306 
    2810   -291116.33         1300   0.12198872   0.13196823   0.11838873   0.37234569   0.12781526   0.11801603   0.15215313   0.39798442 
    2820   -291092.89         1300    0.1213459   0.13179363   0.11805217   0.37119171   0.12747059   0.11774969   0.15096337   0.39618365 
    2830   -291078.65         1300   0.12069415   0.13163328    0.1179557   0.37028312   0.12714482     0.117512   0.14975012   0.39440693 
    2840   -291074.95    1299.5347   0.12004232   0.13147374   0.11793034   0.36944639   0.12685196    0.1173047   0.14852688   0.39268354 
    2850   -291090.68         1300   0.11940468   0.13130655   0.11765397   0.36836521   0.12661421   0.11711565   0.14729419   0.39102405 
    2860   -291113.29         1300   0.11879432    0.1311284   0.11775339   0.36767611   0.12644195   0.11694219   0.14604681   0.38943095 
    2870   -291144.31         1300   0.11821874   0.13094213   0.11731891   0.36647978   0.12632016   0.11680461   0.14477235   0.38789712 
    2880   -291183.06         1300    0.1176749   0.13075667   0.11748166   0.36591323   0.12622652   0.11674568   0.14345813   0.38643033 
    2890   -291224.12         1300   0.11715923   0.13058115    0.1169534   0.36469379   0.12615586   0.11678878    0.1421039   0.38504855 
    2900    -291255.2         1300   0.11667933   0.13042144   0.11713403    0.3642348   0.12610656   0.11693373   0.14072042    0.3837607 
    2910   -291289.58         1300   0.11623621   0.13028103   0.11730699   0.36382423   0.12608032   0.11717639   0.13930818   0.38256489 
    2920   -291325.81         1300   0.11582704   0.13015839   0.11759332   0.36357875   0.12607489   0.11750632    0.1378928   0.38147401 
    2930   -291365.64         1300   0.11545129   0.13005149   0.11775765   0.36326043   0.12608278   0.11790988   0.13650623   0.38049888 
    2940   -291394.25         1300   0.11511085   0.12995885    0.1179976    0.3630673   0.12609879   0.11837478   0.13517677   0.37965034 
    2950   -291392.07    1299.6889   0.11480416   0.12987477   0.11814934   0.36282826   0.12612207   0.11888516   0.13392825   0.37893548 
    2960   -291391.62    1299.5892   0.11452708   0.12979457   0.11830725    0.3626289   0.12614554   0.11944112   0.13277393   0.37836059 
    2970   -291409.77         1300   0.11427639   0.12971962   0.11842004   0.36241605   0.12615991   0.12005081   0.13171984   0.37793056 
    2980    -291437.3         1300   0.11404939   0.12965131   0.11854095   0.36224164    0.1261651   0.12071568   0.13078786   0.37766865 
    2990   -291465.39         1300   0.11384582   0.12958805   0.11860753    0.3620414   0.12617595   0.12142482   0.13000366   0.37760442 
    3000   -291483.77         1300   0.11366628   0.12952568   0.11869536   0.36188733   0.12620856   0.12216196   0.12938599   0.37775651 
    3010   -291486.72    1300.3358   0.11350612   0.12946256   0.11870867   0.36167734   0.12626934   0.12291085   0.12894064   0.37812082 
    3020   -291486.08    1300.2697   0.11335916   0.12940126   0.11874472   0.36150514   0.12635035   0.12365253   0.12866223   0.37866511 
    3030   -291481.33    1299.6755   0.11322455   0.12933865   0.11869741   0.36126061   0.12645729   0.12435784   0.12854534   0.37936047 
    3040    -291485.4    1300.2162   0.11310095   0.12926655   0.11863055   0.36099805    0.1266004   0.12499383   0.12857136   0.38016558 
    3050   -291497.13         1300   0.11298595   0.12917908   0.11849562   0.36066065   0.12677798   0.12554013   0.12870064   0.38101874 
    3060   -291500.06    1300.4341   0.11287691   0.12907362   0.11838511   0.36033565   0.12697578   0.12598785   0.12888997    0.3818536 
    3070   -291502.78    1300.8164   0.11277145   0.12894663   0.11804038   0.35975846   0.12717932   0.12633434   0.12910373    0.3826174 
    3080   -291493.74    1299.6802   0.11266667   0.12879739   0.11791255   0.35937661   0.12738735   0.12658361   0.12931131   0.38328228 
    3090   -291489.88    1299.2054   0.11255988   0.12863332   0.11746055   0.35865375   0.12760014   0.12675357   0.12948796   0.38384167 
    3100   -291483.43         1300   0.11245189   0.12846789   0.11731697   0.35823675   0.12781018   0.12685931   0.12961324   0.38428273 
    3110   -291469.82         1300   0.11234633   0.12831037   0.11680409    0.3574608   0.12800457   0.12688938   0.12966398   0.38455794 
    3120   -291453.33         1300   0.11224321   0.12816264   0.11664175    0.3570476   0.12816976   0.12683071   0.12962565   0.38462612 
    3130   -291443.03         1300   0.11214018   0.12802537   0.11610976   0.35627531   0.12829388   0.12669002   0.12949256   0.38447646 
    3140   -291442.18    1299.9281    0.1120384   0.12790255   0.11592758   0.35586854   0.12835897   0.12649382     0.129252   0.38410479 
    3150   -291445.69    1300.3693   0.11194016    0.1277972   0.11573431   0.35547167   0.12834574   0.12626558   0.12890385   0.38351518 
    3160   -291459.03         1300   0.11184471    0.1277122   0.11531821   0.35487512   0.12823648   0.12601924   0.12845821   0.38271393 
    3170   -291479.65         1300   0.11174725   0.12765319   0.11511836    0.3545188   0.12801654   0.12576601   0.12792427   0.38170682 
    3180   -291483.83    1300.5213   0.11164332   0.12762886   0.11490227   0.35417445   0.12767258   0.12552855   0.12732309   0.38052422 
    3190   -291476.53    1299.5748   0.11153433   0.12764681   0.11470083   0.35388197   0.12719348   0.12533987   0.12667494   0.37920828 
    3200   -291472.16    1299.0022   0.11142219   0.12771046   0.11459506   0.35372771   0.12657666   0.12522794   0.12598516   0.37778976 
    3210   -291467.69         1300    0.1113094    0.1278228   0.11438301    0.3535152   0.12582018   0.12520177   0.12525447   0.37627642 
    3220   -291467.26    1299.8839   0.11120113    0.1279856   0.11464096    0.3538277   0.12491968   0.12525773   0.12450263   0.37468004 
    3230    -291468.8     1300.074   0.11110298   0.12819945   0.11441811   0.35372053   0.12387679   0.12538688    0.1237463   0.37300997 
    3240   -291474.21    1300.7621   0.11102274   0.12846157    0.1146306   0.35411492   0.12270698   0.12556639   0.12299887   0.37127224 
    3250   -291482.59         1300   0.11096734   0.12876477    0.1143983    0.3541304   0.12144651    0.1257662   0.12227917   0.36949188 
    3260   -291489.63    1300.9571   0.11094211   0.12909932   0.11417102   0.35421245   0.12013771   0.12596093   0.12162211   0.36772074 
    3270      -291509         1300    0.1109533   0.12945981     0.114379   0.35479211   0.11880952   0.12612888   0.12105192   0.36599032 
    3280    -291527.3         1300   0.11100669   0.12984153   0.11418981   0.35503803   0.11749026   0.12625152   0.12058085   0.36432263 
    3290   -291548.38         1300   0.11110186   0.13023482   0.11441151   0.35574819   0.11620702   0.12631924   0.12021914    0.3627454 
    3300   -291562.59         1300   0.11123817   0.13062822   0.11428137   0.35614775    0.1149892   0.12633461   0.11997028   0.36129408 
    3310   -291561.41    1299.8649   0.11141312   0.13100509   0.11444725   0.35686546   0.11386643   0.12630195   0.11981859   0.35998697 
    3320   -291568.61    1300.8124   0.11162374   0.13135865   0.11437564   0.35735803   0.11286548   0.12622092   0.11977062   0.35885702 
    3330   -291575.57         1300   0.11186611   0.13169101     0.114337   0.35789411   0.11200533   0.12609383   0.11984394   0.35794309 
    3340   -291583.49    1300.9859   0.11213541   0.13200475   0.11446243   0.35860259   0.11130588   0.12593616    0.1200548   0.35729684 
    3350   -291583.94         1300   0.11242793   0.13229798   0.11450485   0.35923075   0.11078503   0.12576921   0.12040483   0.35695908 
    3360   -291587.49    1300.4734   0.11274408   0.13256535   0.11454729   0.35985673   0.11045469   0.12560321    0.1208749   0.35693281 
    3370   -291590.34    1300.8226   0.11308794   0.13280224    0.1146811   0.36057129   0.11032057   0.12544482   0.12144171   0.35720711 
    3380   -291585.47    1300.2104   0.11346739   0.13300956   0.11486232   0.36133927   0.11038475   0.12528518   0.12209057    0.3577605 
    3390   -291581.13    1299.6172   0.11388139   0.13319042   0.11494851   0.36202032   0.11062409   0.12511185   0.12282376   0.35855969 
    3400   -291559.69         1300   0.11432272   0.13334232   0.11522681   0.36289185   0.11100548   0.12491727    0.1236394   0.35956215 
    3410   -291522.39         1300    0.1147826   0.13346147   0.11537784   0.36362192   0.11150848   0.12467975   0.12451947   0.36070771 
    3420   -291470.19         1300   0.11525246   0.13354525   0.11574024   0.36453796   0.11211544   0.12437678   0.12546433   0.36195655 
    3430    -291402.8         1300    0.1157221   0.13359508   0.11596342    0.3652806   0.11279992   0.12400414   0.12645682   0.36326089 
    3440   -291321.67         1300   0.11618239   0.13361618   0.11638908   0.36618766   0.11352379   0.12356928   0.12744944   0.36454251 
    3450    -291243.9         1300   0.11662664   0.13361398   0.11666496   0.36690558   0.11427027   0.12308358   0.12840419   0.36575804 
    3460   -291168.12         1300   0.11704698   0.13359565   0.11713141   0.36777404   0.11503466   0.12257069   0.12929282   0.36689817 
    3470   -291092.25         1300   0.11743377   0.13357444    0.1176034   0.36861161   0.11581547   0.12206742   0.13009159   0.36797449 
    3480   -291022.39         1300   0.11778364   0.13355969   0.11787427   0.36921759   0.11661217   0.12160209    0.1307863   0.36900056 
    3490   -290969.71         1300   0.11809712   0.13355632   0.11835215   0.37000559   0.11742232   0.12120009   0.13136649    0.3699889 
    3500   -290946.46         1300   0.11837508   0.13356474   0.11860459    0.3705444   0.11823984   0.12088124     0.131832   0.37095307 
    3510    -290948.7    1300.2859   0.11861915   0.13358469   0.11910173   0.37130557   0.11905534   0.12065741   0.13219264   0.37190539 
    3520   -290962.11         1300   0.11883336   0.13361822   0.11936743   0.37181901   0.11985823    0.1205353   0.13245457   0.37284811 
    3530   -290988.09         1300   0.11901742   0.13366386     0.119902   0.37258328   0.12064041   0.12050708   0.13262989   0.37377738 
    3540   -291021.42         1300   0.11917549   0.13371366   0.12018376   0.37307292   0.12139712   0.12055382   0.13274437   0.37469531 
    3550   -291063.46         1300   0.11931574   0.13376175   0.12075412    0.3738316   0.12211766   0.12066172   0.13283034   0.37560973 
    3560   -291110.76         1300     0.119446   0.13379897   0.12108419   0.37432916   0.12280463    0.1208249   0.13291238   0.37654191 
    3570    -291140.2         1300   0.11955992   0.13382661   0.12174991   0.37513643   0.12347052   0.12104856   0.13302293     0.377542 
    3580   -291156.65         1300   0.11964801   0.13384486   0.12245068   0.37594356   0.12413045   0.12134062   0.13321888   0.37868995 
    3590    -291181.7         1300   0.11971049   0.13385146   0.12296791   0.37652986   0.12479889   0.12169238   0.13353829   0.38002956 
    3600    -291208.4         1300   0.11974663   0.13384707   0.12370515   0.37729885   0.12548018   0.12209505   0.13400132   0.38157655 
    3610   -291236.05         1300   0.11975252   0.13384095   0.12439588   0.37798935   0.12617659   0.12253628   0.13461548   0.38332836 
    3620   -291266.78         1300   0.11972319   0.13384124   0.12516506   0.37872949   0.12689818   0.12300434   0.13537633   0.38527885 
    3630   -291280.95         1300   0.11964972    0.1338472   0.12612223   0.37961915   0.12764476   0.12349446   0.13625723   0.38739645 
    3640   -291280.26    1299.8807   0.11952971    0.1338587   0.12690957   0.38029797   0.12840392   0.12399195   0.13722554    0.3896214 
    3650   -291265.87         1300   0.11937724   0.13387711   0.12772363   0.38097798   0.12916236   0.12446865   0.13823565   0.39186666 
    3660   -291245.38         1300   0.11920614   0.13390122    0.1285279   0.38163525   0.12991756   0.12488815   0.13923792   0.39404364 
    3670   -291224.72         1300   0.11902685   0.13392706   0.12944729    0.3824012   0.13067268   0.12522163   0.14019923   0.39609353 
    3680   -291202.32         1300   0.11884466   0.13395969   0.13026565      0.38307   0.13142897   0.12546233   0.14108513   0.39797643 
    3690   -291173.96         1300   0.11865668   0.13400847   0.13124249   0.38390763   0.13219417   0.12562485   0.14187116   0.39969017 
    3700   -291148.37         1300   0.11846322    0.1340766   0.13202669   0.38456652   0.13298459    0.1257305   0.14257415   0.40128924 
    3710    -291132.4         1300   0.11826521   0.13416419   0.13277395   0.38520335   0.13380485   0.12579237   0.14321516   0.40281238 
    3720   -291119.03         1300   0.11805512   0.13426849   0.13362482   0.38594844   0.13465063   0.12581521   0.14380942   0.40427526 
    3730   -291111.89    1299.0878   0.11783044   0.13438679   0.13425362   0.38647084   0.13551906   0.12580614   0.14439728   0.40572248 
    3740   -291100.27         1300   0.11759241   0.13450977   0.13490697   0.38700915   0.13640799   0.12578158    0.1450153   0.40720488 
    3750   -291093.31    1299.0775   0.11734319   0.13462658   0.13542803    0.3873978   0.13731542   0.12575945    0.1456931   0.40876797 
    3760   -291081.24         1300   0.11708303    0.1347302    0.1359041   0.38771733   0.13822842   0.12575317   0.14645596   0.41043755 
    3770   -291069.83         1300   0.11681343   0.13482265   0.13635337   0.38798945   0.13911618   0.12577388   0.14729462   0.41218468 
    3780   -291056.12         1300   0.11654354   0.13490396   0.13676149     0.388209   0.13995458   0.12583234   0.14818971   0.41397662 
    3790   -291050.97    1299.3352   0.11628065   0.13497353   0.13697159   0.38822577    0.1407373   0.12592972   0.14913659   0.41580361 
    3800   -291052.42    1299.5274   0.11602956   0.13502713   0.13729481    0.3883515   0.14147189   0.12607378   0.15011985   0.41766553 
    3810   -291041.27         1300    0.1157941   0.13506047   0.13760106   0.38845562   0.14216573   0.12628083   0.15111219   0.41955875 
    3820   -291029.68         1300   0.11557814   0.13507223   0.13784943    0.3884998   0.14281395   0.12656817   0.15207482   0.42145695 
    3830   -291011.48         1300   0.11538264   0.13506218   0.13818499   0.38862981   0.14340883   0.12695312   0.15297125   0.42333321 
    3840   -291002.57         1300    0.1152104   0.13502767   0.13835794   0.38859601   0.14394037   0.12744094   0.15379427   0.42517558 
    3850   -291010.92         1300   0.11506304   0.13496883   0.13907607   0.38910794   0.14440394   0.12801235   0.15452775   0.42694403 
    3860    -291037.7         1300   0.11494052   0.13488813   0.13914387   0.38897252   0.14479838   0.12865252   0.15514619   0.42859709 
    3870   -291069.85         1300   0.11484832   0.13478816   0.13916433    0.3888008   0.14512713   0.12935577    0.1556338    0.4301167 
    3880   -291099.53         1300   0.11479669   0.13467002   0.14002933   0.38949604    0.1453824   0.13012257   0.15599426   0.43149923 
    3890    -291124.9         1300    0.1147909   0.13453255    0.1399676   0.38929105   0.14554587   0.13093761   0.15624725   0.43273072 
    3900   -291146.75         1300   0.11482701   0.13438495   0.14103818   0.39025014   0.14560018   0.13178494   0.15644646   0.43383159 
    3910    -291173.8         1300   0.11489619   0.13424441    0.1409079    0.3900485   0.14553221   0.13266337   0.15663077   0.43482635 
    3920   -291195.51         1300   0.11499431    0.1341144   0.14200474   0.39111346   0.14534782   0.13357746   0.15682606   0.43575133 
    3930   -291216.99         1300   0.11511906   0.13399986    0.1418226   0.39094153   0.14506133   0.13453589   0.15705656   0.43665378 
    3940   -291234.38         1300    0.1152691     0.133905   0.14284548   0.39201957   0.14468215   0.13554703   0.15734432    0.4375735 
    3950   -291241.54    1300.9132    0.1154316   0.13383499   0.14263776   0.39190434   0.14421049   0.13661654   0.15770558    0.4385326 
    3960   -291241.54     1300.909   0.11559147   0.13379248   0.14242953   0.39181348   0.14365506   0.13775235   0.15812044   0.43952785 
    3970   -291229.95    1299.4563   0.11574691   0.13377809    0.1432676   0.39279259   0.14304217   0.13893709   0.15859919   0.44057844 
    3980   -291223.05         1300   0.11590616   0.13378508   0.14306207   0.39275331   0.14239181   0.14013568   0.15914959   0.44167708 
    3990   -291225.35    1300.2663   0.11607661    0.1338061     0.143632   0.39351471   0.14171187   0.14130698   0.15976013   0.44277898 
    4000   -291226.95    1300.4642   0.11625508   0.13383809   0.14346071   0.39355387   0.14100161   0.14241152    0.1604134   0.44382653 
    4010   -291227.43    1300.5286    0.1164381   0.13387932   0.14373206   0.39404947   0.14025716   0.14342812   0.16108178   0.44476706 
    4020    -291228.8    1300.7475   0.11662553     0.133932   0.14361811   0.39417564   0.13948104   0.14434489   0.16172479   0.44555072 
    4030   -291228.07    1300.6625   0.11681819   0.13399495    0.1435527   0.39436584   0.13868923   0.14516418   0.16231683   0.44617024 
    4040   -291218.42    1299.3963   0.11701579   0.13406084   0.14357614   0.39465277   0.13790288   0.14589786   0.16285337   0.44665411 
    4050   -291209.78         1300   0.11721532   0.13412887   0.14360967   0.39495387   0.13713229   0.14656408   0.16331095   0.44700733 
    4060   -291212.93    1300.3724   0.11740598   0.13420676   0.14337187   0.39498461   0.13637553   0.14717112   0.16366497   0.44721163 
    4070   -291215.71    1300.6972    0.1175802   0.13430115    0.1434631   0.39534445   0.13564019   0.14771816   0.16389429   0.44725264 
    4080   -291219.96         1300   0.11773666   0.13441346    0.1430723   0.39522242   0.13495147   0.14820835   0.16399133   0.44715115 
    4090   -291232.74         1300   0.11787361   0.13454595   0.14320664   0.39562621   0.13433413    0.1486278   0.16394609   0.44690803 
    4100    -291234.4    1300.2121   0.11799013   0.13470133   0.14283343   0.39552489   0.13380652   0.14894839   0.16375111   0.44650602 
    4110   -291219.55         1300   0.11808479   0.13488311   0.14300727   0.39597517     0.133384   0.14914129    0.1634201   0.44594539 
    4120   -291201.82         1300   0.11815882   0.13509627   0.14263191     0.395887   0.13307427   0.14918009   0.16296363   0.44521798 
    4130   -291177.71         1300   0.11821816   0.13534627   0.14284426   0.39640869   0.13288331   0.14903398   0.16238996   0.44430725 
    4140   -291157.82         1300   0.11827209    0.1356389   0.14307162   0.39698261   0.13282305   0.14866203   0.16171161   0.44319669 
    4150   -291133.85         1300   0.11832212   0.13597247   0.14276264   0.39705724     0.132911   0.14804612   0.16095822   0.44191535 
    4160   -291104.92         1300   0.11836818   0.13634181   0.14302203   0.39773202   0.13316616   0.14718753   0.16016342   0.44051711 
    4170   -291081.69         1300   0.11841233   0.13673146   0.14317239   0.39831618   0.13359945   0.14609734   0.15935422   0.43905101 
    4180   -291069.73         1300   0.11845293   0.13713494   0.14344091   0.39902877   0.13419768   0.14480756   0.15855805   0.43756328 
    4190   -291056.37         1300   0.11849147   0.13755318    0.1437733   0.39981795   0.13493795   0.14337033   0.15778286   0.43609114 
    4200   -291051.42    1299.3555   0.11852944   0.13798507   0.14401006   0.40052458   0.13579419   0.14183673   0.15700117   0.43463209 
    4210   -291051.89    1299.4338    0.1185739   0.13842178    0.1442291   0.40122477   0.13672181   0.14025209   0.15618128   0.43315518 
    4220   -291050.03    1299.2047    0.1186384   0.13885667   0.14423098   0.40172604   0.13767134   0.13863297   0.15530982   0.43161413 
    4230   -291057.81    1300.2125   0.11874198   0.13928036   0.14444372   0.40246606   0.13859404   0.13698808   0.15437179   0.42995391 
    4240   -291082.49         1300   0.11889774   0.13967338    0.1442307   0.40280182   0.13944715   0.13533988   0.15335816   0.42814519 
    4250   -291114.68         1300   0.11911358   0.14002222   0.14443906   0.40357486   0.14020489   0.13371867   0.15227572   0.42619929 
    4260    -291149.2         1300   0.11939516   0.14032263   0.14481537   0.40453316   0.14085474   0.13215576   0.15113417   0.42414466 
    4270   -291165.37         1300    0.1197441   0.14058134   0.14499284   0.40531828   0.14139581    0.1306808   0.14994004   0.42201664 
    4280   -291174.05         1300    0.1201541   0.14081632   0.14574563   0.40671604   0.14184231   0.12932474   0.14870813   0.41987518 
    4290   -291183.16         1300   0.12061428   0.14104396   0.14588599   0.40754423   0.14221223   0.12811676   0.14746903   0.41779803 
    4300   -291183.25    1299.9686   0.12111591   0.14126792   0.14668942   0.40907325   0.14253011   0.12707409   0.14625287   0.41585707 
    4310   -291196.51         1300   0.12165182   0.14148731   0.14677174   0.40991087   0.14281424   0.12619907   0.14507641   0.41408971 
    4320   -291217.13         1300   0.12221418   0.14169726   0.14758107   0.41149251   0.14307189   0.12548988   0.14395811   0.41251988 
    4330    -291228.9         1300   0.12279668    0.1418916   0.14763077   0.41231905   0.14332661   0.12493579   0.14291656   0.41117895 
    4340   -291242.34         1300   0.12339688   0.14206771   0.14767182    0.4131364    0.1436085   0.12451888   0.14197076   0.41009814 
    4350   -291247.72    1300.7261   0.12400675   0.14222599   0.14849915   0.41473189   0.14392727   0.12422906   0.14113528   0.40929161 
    4360   -291249.74         1300   0.12461155   0.14236178   0.14852324   0.41549657   0.14427762   0.12405841   0.14042221   0.40875823 
    4370   -291236.94         1300   0.12519883   0.14247201   0.14924704   0.41691788   0.14466322   0.12399323   0.13982753   0.40848398 
    4380   -291213.58         1300    0.1257656   0.14255401   0.14922892   0.41754853   0.14508748   0.12402034   0.13932716   0.40843498 
    4390   -291204.35         1300   0.12631179   0.14260523   0.14972206   0.41863908   0.14554684   0.12414464   0.13889695   0.40858843 
    4400   -291213.54         1300   0.12683187   0.14262776   0.14965667    0.4191163   0.14603953   0.12437176   0.13850968   0.40892098 
    4410   -291233.44         1300   0.12732058   0.14261838   0.14985237   0.41979133    0.1465635   0.12469597   0.13813798   0.40939745 
    4420   -291256.02         1300   0.12777255   0.14257354    0.1497446    0.4200907   0.14711325   0.12510706   0.13776106   0.40998137 
    4430   -291280.49         1300   0.12818267    0.1424888   0.14961876   0.42029023   0.14766808   0.12559193    0.1373734   0.41063341 
    4440   -291314.31         1300   0.12854774   0.14235819   0.14949579   0.42040172   0.14820503    0.1261367    0.1369809   0.41132263 
    4450   -291344.04         1300    0.1288664   0.14218097   0.14937322   0.42042059   0.14871033   0.12672941   0.13659716   0.41203691 
    4460   -291357.09         1300    0.1291375   0.14196178   0.14893209   0.42003138   0.14916769   0.12735506   0.13623498   0.41275773 
    4470   -291370.23         1300   0.12935857   0.14170465   0.14880306   0.41986628   0.14954695   0.12799653   0.13590312    0.4134466 
    4480   -291389.57         1300   0.12952526   0.14141936   0.14808531   0.41902993   0.14982599   0.12865157   0.13562912   0.41410668 
    4490   -291408.76         1300    0.1296327   0.14111822   0.14792368    0.4186746   0.14999829   0.12931207   0.13543717   0.41474753 
    4500   -291412.46    1300.4783   0.12967644   0.14081082   0.14695093    0.4174382   0.15006291   0.12996456   0.13534088   0.41536835 
    4510   -291411.29    1300.2565   0.12965315   0.14050106    0.1467663   0.41692051   0.15002521   0.13060436   0.13534946   0.41597903 
    4520   -291417.43         1300   0.12955904    0.1401861   0.14570098   0.41544612   0.14988101   0.13123821   0.13547104   0.41659026 
    4530   -291442.61         1300   0.12939515   0.13986174   0.14551662   0.41477352    0.1496454   0.13188137   0.13570088   0.41722765 
    4540   -291473.08         1300   0.12916955   0.13952334   0.14457635   0.41326924   0.14934953   0.13253711    0.1360202   0.41790684 
    4550   -291492.72         1300   0.12889237   0.13916423   0.14439261   0.41244921   0.14902863   0.13319551    0.1363955   0.41861964 
    4560   -291506.35         1300    0.1285665   0.13878469   0.14420714   0.41155833   0.14870699    0.1338355   0.13680407   0.41934655 
    4570   -291508.29    1300.2143   0.12819253   0.13839098    0.1434136   0.40999712   0.14840398   0.13444042   0.13723344   0.42007785 
    4580   -291505.82    1299.8902   0.12777171   0.13798744   0.14325687   0.40901602   0.14813623   0.13501065   0.13766724   0.42081413 
    4590   -291502.62    1299.4515   0.12730961   0.13757345   0.14248853   0.40737159    0.1479131   0.13554639   0.13808702   0.42154652 
    4600   -291495.81         1300   0.12681901    0.1371589     0.142375   0.40635291   0.14773747   0.13603131   0.13847443   0.42224321 
    4610   -291489.32    1299.1557   0.12631097   0.13676033   0.14211823   0.40518953   0.14760207   0.13646693   0.13884011   0.42290911 
    4620   -291473.81         1300    0.1258008   0.13638676   0.14205095   0.40423851   0.14750605   0.13686426   0.13919901   0.42356933 
    4630   -291438.37         1300   0.12529915    0.1360459   0.14222084   0.40356589   0.14744613   0.13724162   0.13957943   0.42426718 
    4640   -291401.79         1300   0.12481641   0.13574836   0.14215369   0.40271845   0.14742059   0.13761268   0.14001167   0.42504494 
    4650   -291374.82         1300   0.12436573   0.13550531   0.14206871   0.40193975   0.14744571   0.13797386   0.14050868   0.42592825 
    4660      -291348         1300   0.12395406   0.13532253   0.14202545   0.40130204   0.14752749   0.13830802   0.14106823   0.42690375 
    4670   -291322.22         1300   0.12358644    0.1351872   0.14189113   0.40066477    0.1476694   0.13858932   0.14168126   0.42793999 
    4680   -291298.38         1300   0.12326946   0.13507832     0.141674   0.40002177   0.14786907   0.13880258   0.14233192   0.42900357 
    4690   -291279.43         1300   0.12299429   0.13498815    0.1414858   0.39946824   0.14811022   0.13895364   0.14299935   0.43006321 
    4700   -291267.36         1300    0.1227519   0.13491599   0.14118786   0.39885575   0.14837079   0.13904334   0.14367299   0.43108712 
    4710   -291254.78         1300   0.12254346   0.13486049    0.1409769   0.39838086   0.14861613   0.13907423   0.14434656   0.43203692 
    4720   -291253.92    1299.9046   0.12236889   0.13481839   0.14075927   0.39794655   0.14880387    0.1390464   0.14500951   0.43285978 
    4730   -291269.08         1300   0.12222601   0.13478785   0.14056695    0.3975808   0.14889984   0.13896424   0.14564774   0.43351182 
    4740   -291286.55         1300   0.12211644   0.13477001   0.14053658   0.39742303   0.14889413   0.13884085   0.14625361    0.4339886 
    4750   -291294.03    1300.9742   0.12204145    0.1347653   0.14039106   0.39719781   0.14878485    0.1386927   0.14682476   0.43430231 
    4760   -291305.52         1300   0.12200417   0.13477651   0.14057414   0.39735482   0.14858229   0.13854286   0.14736966   0.43449481 
    4770   -291322.83         1300   0.12200945   0.13480384   0.14050488   0.39731818     0.148297   0.13839175   0.14788573   0.43457448 
    4780   -291344.35         1300   0.12206169   0.13484621    0.1408226    0.3977305   0.14794978   0.13824051   0.14836458   0.43455487 
    4790   -291369.28         1300   0.12216297   0.13490308   0.14084125    0.3979073   0.14756403   0.13809545   0.14879761   0.43445709 
    4800   -291395.59         1300   0.12231218   0.13497466   0.14116515     0.398452   0.14715811   0.13796229   0.14917233   0.43429273 
    4810   -291422.91         1300   0.12250964   0.13504772   0.14126828   0.39882564    0.1467501   0.13785123   0.14946758   0.43406891 
    4820   -291440.62         1300    0.1227591    0.1351121   0.14139979   0.39927098   0.14634404   0.13776309   0.14967541   0.43378254 
    4830   -291428.09         1300   0.12306445   0.13516249   0.14169674   0.39992368   0.14593585   0.13770181   0.14981784    0.4334555 
    4840   -291397.02         1300   0.12342461   0.13519502   0.14183892   0.40045854   0.14552653   0.13767212   0.14991018   0.43310884 
    4850   -291355.87         1300   0.12383702   0.13521524   0.14199253   0.40104479   0.14512395   0.13767393   0.14995844   0.43275631 
    4860   -291319.41         1300   0.12429505   0.13522723   0.14207926   0.40160154   0.14473649   0.13772455   0.14997378   0.43243482 
    4870   -291290.18         1300   0.12478907   0.13523452   0.14209395   0.40211753   0.14437741   0.13784346   0.14997331   0.43219419 
    4880      -291256         1300   0.12531661   0.13523774   0.14211513   0.40266948   0.14404327   0.13804338   0.14999158   0.43207823 
    4890   -291222.91         1300   0.12587813   0.13523901   0.14216571   0.40328285   0.14372628   0.13833271   0.15005818   0.43211717 
    4900   -291190.83         1300   0.12646646   0.13524144    0.1422156   0.40392351    0.1434205   0.13872409   0.15018518   0.43232977 
    4910   -291137.02         1300   0.12707164   0.13525152   0.14229998   0.40462315   0.14311472   0.13921768   0.15036714   0.43269955 
    4920   -291091.85         1300   0.12768787   0.13527262   0.14273026   0.40569075   0.14280278   0.13980134   0.15058032   0.43318444 
    4930   -291059.88         1300   0.12830744    0.1353047   0.14288045   0.40649259   0.14247434   0.14045724   0.15079405   0.43372563 
    4940   -291035.14         1300   0.12891865    0.1353499   0.14376284   0.40803139   0.14210669   0.14116985    0.1509816   0.43425813 
    4950   -291012.75         1300   0.12950671   0.13541361   0.14399121   0.40891154   0.14168527   0.14193897   0.15111592   0.43474016 
    4960   -291002.75         1300    0.1300619   0.13550457   0.14517173    0.4107382    0.1412162   0.14278694   0.15117785     0.435181 
    4970   -290998.27    1299.4456     0.130577   0.13561518   0.14550225   0.41169444   0.14071771   0.14371378   0.15116498   0.43559648 
    4980   -291002.37    1300.0026   0.13104596   0.13572907   0.14675517   0.41353019    0.1402271   0.14469157   0.15108162   0.43600029 
    4990   -291008.18    1300.7622   0.13145984   0.13583293   0.14715677   0.41444953   0.13979018   0.14569153   0.15095011   0.43643182 
    5000    -291008.5    1300.8818   0.13181534   0.13592433   0.14824298   0.41598265   0.13942872   0.14670142   0.15079285   0.43692299 
    5010   -291003.61    1300.2922   0.13211125    0.1360035   0.14866033   0.41677508   0.13916181     0.147706   0.15062536   0.43749317 
    5020   -291015.56         1300    0.1323451   0.13606836   0.14944273   0.41785619   0.13901923   0.14866859   0.15045154   0.43813936 
    5030   -291037.21         1300   0.13251859   0.13611651   0.14982415   0.41845925   0.13902659   0.14956033    0.1502837   0.43887063 
    5040   -291058.73         1300   0.13263998   0.13615146   0.15038265   0.41917409   0.13919173   0.15036664   0.15013879   0.43969716 
    5050   -291083.87         1300   0.13272287   0.13618496   0.15075116   0.41965898   0.13949396   0.15109062   0.15003125   0.44061583 
    5060   -291111.64         1300   0.13278255   0.13623098   0.15123211   0.42024563   0.13990158   0.15175644   0.14997501   0.44163303 
    5070   -291147.74         1300   0.13283156    0.1363015   0.15162948   0.42076254   0.14037726   0.15237715   0.14997123   0.44272564 
    5080   -291186.47         1300   0.13287219   0.13639122   0.15205155   0.42131496   0.14090478   0.15295133   0.15001183   0.44386794 
    5090   -291231.12         1300   0.13290404   0.13649373   0.15244306   0.42184083   0.14147706   0.15348589   0.15008338   0.44504634 
    5100   -291279.81         1300   0.13293216   0.13661226    0.1527443   0.42228871   0.14208511   0.15399037   0.15016525   0.44624073 
    5110   -291315.59         1300   0.13295758   0.13675001   0.15308463   0.42279222   0.14273509   0.15444491   0.15024844   0.44742844 
    5120   -291344.51         1300   0.13298514   0.13690636   0.15307196   0.42296346    0.1434292     0.154821    0.1503204    0.4485706 
    5130   -291365.61         1300   0.13301994   0.13707881   0.15339697   0.42349572    0.1441502    0.1550878   0.15036491   0.44960291 
    5140   -291369.92    1300.5874   0.13306671   0.13726442    0.1537179   0.42404903   0.14488769   0.15522098   0.15037861   0.45048728 
    5150   -291363.71    1299.7582   0.13313159   0.13746605   0.15335845    0.4239561   0.14563829   0.15520384    0.1503706   0.45121273 
    5160   -291353.63         1300   0.13321407   0.13769003   0.15366107   0.42456517    0.1464074   0.15503724    0.1503435   0.45178814 
    5170    -291330.2         1300   0.13330839   0.13793323   0.15308859   0.42433021   0.14719605   0.15473846   0.15027903   0.45221354 
    5180   -291279.89         1300    0.1334159   0.13819676   0.15335755   0.42497021   0.14797335    0.1543363   0.15014439   0.45245404 
    5190   -291222.14         1300   0.13354197   0.13848012   0.15263449   0.42465658   0.14870572   0.15387075   0.14992537   0.45250184 
    5200   -291171.32         1300   0.13369021   0.13877286   0.15284785   0.42531093   0.14938054   0.15336817   0.14964351   0.45239223 
    5210   -291131.94         1300   0.13386078   0.13906767   0.15201647   0.42494492   0.15000192   0.15283998    0.1493363    0.4521782 
    5220   -291093.44         1300   0.13404783   0.13936791    0.1521841   0.42559983   0.15060156   0.15228467   0.14903206    0.4519183 
    5230   -291060.79         1300   0.13424789   0.13968021   0.15232842   0.42625652   0.15119451   0.15171038   0.14873798   0.45164287 
    5240   -291038.99         1300   0.13445996   0.14001991   0.15166235   0.42614222   0.15177417   0.15113909   0.14846627   0.45137953 
    5250   -291018.16         1300   0.13468454   0.14039416   0.15179022   0.42686892   0.15233025   0.15057497   0.14823992   0.45114513 
    5260   -291011.58    1299.0429   0.13492298   0.14079498   0.15133368   0.42705164   0.15285315   0.15001646     0.148076   0.45094561 
    5270   -291022.23    1300.4037   0.13518022   0.14120871    0.1514786   0.42786753    0.1533351   0.14947541   0.14798999    0.4508005 
    5280   -291040.59         1300   0.13546334   0.14161904   0.15123121   0.42831359   0.15376541   0.14896705   0.14799267   0.45072512 
    5290   -291066.95         1300   0.13577879   0.14202877   0.15142793   0.42923549   0.15412687    0.1485157   0.14808349   0.45072605 
    5300   -291104.28         1300   0.13612372   0.14244044   0.15131595   0.42988011   0.15440423   0.14815217   0.14825239   0.45080879 
    5310   -291153.78         1300   0.13649152    0.1428419   0.15158579   0.43091921   0.15459797   0.14789956   0.14848323   0.45098075 
    5320   -291199.77         1300   0.13687794   0.14322246   0.15145289   0.43155329   0.15470486    0.1477747   0.14875648   0.45123604 
    5330   -291239.84         1300   0.13727949   0.14359388   0.15176556   0.43263893   0.15472203   0.14778265   0.14905343   0.45155812 
    5340   -291267.76         1300   0.13769414   0.14396259   0.15156335   0.43322009   0.15465723   0.14791454    0.1493658   0.45193757 
    5350   -291271.59    1300.4934      0.13812   0.14432619   0.15190436   0.43435055   0.15452413   0.14815096   0.14968945   0.45236454 
    5360   -291275.18     1300.988   0.13855386   0.14467458   0.15226007   0.43548851   0.15434494   0.14845716   0.15001558   0.45281768 
    5370   -291275.49         1300   0.13898558   0.14500386    0.1521387   0.43612814   0.15415926   0.14880812   0.15034351    0.4533109 
    5380   -291272.72    1299.6607   0.13940341   0.14532634    0.1525328   0.43726255   0.15401319   0.14919086   0.15067044    0.4538745 
    5390   -291274.41    1299.9037   0.13979685   0.14565184   0.15252331   0.43797201    0.1539395   0.14959519   0.15099589   0.45453058 
    5400   -291276.24    1300.1969   0.14015784   0.14597931   0.15295618   0.43909333   0.15395379   0.15000899   0.15132171   0.45528449 
    5410   -291267.45     1299.071   0.14048559   0.14630317   0.15308067   0.43986943   0.15405737   0.15042472   0.15163938   0.45612147 
    5420   -291265.21         1300   0.14078214   0.14661266   0.15356236   0.44095717   0.15424451   0.15083017   0.15194233   0.45701701 
    5430   -291272.52    1300.9769   0.14104729   0.14689007   0.15385714   0.44179451   0.15451102   0.15120679   0.15223258   0.45795039 
    5440   -291292.17         1300   0.14128159   0.14712607   0.15438965   0.44279732   0.15484064   0.15154187   0.15251697   0.45889948 
    5450   -291313.99         1300   0.14148938   0.14732758     0.154908   0.44372496   0.15520667   0.15182936   0.15280956   0.45984558 
    5460   -291331.53         1300   0.14167537   0.14750479   0.15551387   0.44469404   0.15558853   0.15206856   0.15312636   0.46078345 
    5470   -291337.27    1300.7577   0.14184361   0.14766937   0.15623929   0.44575227   0.15598756   0.15227147   0.15346634   0.46172537 
    5480   -291315.81         1300   0.14200156   0.14782706   0.15688878    0.4467174   0.15640703   0.15244402   0.15380984   0.46266088 
    5490   -291273.56         1300   0.14215355   0.14797529   0.15767989   0.44780873   0.15683902   0.15257187   0.15415896   0.46356985 
    5500   -291230.81         1300   0.14229957   0.14811369   0.15835544   0.44876869   0.15728635   0.15264487   0.15452946   0.46446068 
    5510   -291182.01         1300   0.14243873   0.14824531    0.1591038   0.44978784   0.15774968   0.15265946   0.15492355   0.46533268 
    5520   -291144.27         1300    0.1425729   0.14838522   0.15981123   0.45076935   0.15821616   0.15262386   0.15532944   0.46616946 
    5530    -291127.2         1300    0.1427009   0.14854123   0.16052718   0.45176931   0.15867369   0.15254003   0.15574367   0.46695738 
    5540   -291111.91         1300   0.14281474   0.14870863   0.16117383    0.4526972   0.15912476   0.15240557   0.15617033   0.46770067 
    5550   -291096.43         1300   0.14291107    0.1488846   0.16189126   0.45368692   0.15958513    0.1522304   0.15659487    0.4684104 
    5560   -291072.77         1300     0.142994   0.14907568   0.16239932     0.454469   0.16007027   0.15201866   0.15698075   0.46906967 
    5570   -291038.42         1300   0.14306509   0.14928021   0.16310679   0.45545209   0.16058667   0.15175812   0.15729764   0.46964243 
    5580   -291011.19         1300   0.14312531    0.1494846   0.16356384   0.45617374   0.16113862   0.15144597   0.15752544   0.47011003 
    5590   -290992.31         1300   0.14317211    0.1496813   0.16426043   0.45711384   0.16173258   0.15109765   0.15764005   0.47047027 
    5600   -290984.12         1300    0.1432026   0.14986546   0.16468048   0.45774854    0.1623697   0.15072638   0.15761476   0.47071084 
[...]
  248670   -292706.24         1300    2.7873165    2.3947193    2.3370243    7.5190601    2.8225902    2.8120278    2.7716089    8.4062269 
  248680   -292728.43         1300    2.7888804    2.3938625    2.3361272    7.5188701    2.8210472     2.812014    2.7730785    8.4061397 
  248690   -292744.09         1300    2.7905621    2.3931037     2.334996    7.5186619    2.8195238     2.812072    2.7741595    8.4057553 
  248700   -292751.55    1300.9267      2.79236    2.3924441    2.3343943    7.5191985    2.8180451    2.8121649     2.774837     8.405047 
  248710   -292750.85    1300.8374    2.7942866     2.391886    2.3333603     7.519533    2.8166626    2.8122795    2.7750739     8.404016 
  248720   -292738.15    1299.1566    2.7963327    2.3914265    2.3330387    7.5207979    2.8153936    2.8124367    2.7748681    8.4026984 
  248730   -292697.76         1300    2.7984726     2.391067    2.3320731    7.5216127    2.8142739    2.8126781    2.7742721    8.4012242 
  248740   -292640.97         1300    2.8006869    2.3908155    2.3319172    7.5234196    2.8133158     2.813022    2.7733019    8.3996398 
  248750   -292580.01         1300    2.8029631     2.390675     2.331019    7.5246571    2.8125138     2.813453    2.7719487    8.3979154 
  248760   -292510.07         1300    2.8053077    2.3906413     2.330185    7.5261339    2.8118357    2.8139262    2.7701747    8.3959367 
  248770   -292442.24         1300    2.8077244    2.3907064    2.3302605    7.5286913    2.8112397    2.8144299    2.7679339    8.3936035 
  248780   -292384.24         1300    2.8102134    2.3908616    2.3295524    7.5306274     2.810676    2.8149453     2.765231    8.3908523 
  248790   -292336.02         1300    2.8127617    2.3910846    2.3297256     7.533572    2.8100844    2.8154437    2.7621182    8.3876464 
  248800   -292294.58         1300    2.8153204    2.3913844    2.3290664    7.5357711    2.8093818    2.8159032    2.7586438    8.3839288 
  248810   -292269.83         1300    2.8178402    2.3917689    2.3290931    7.5387022    2.8085132    2.8162797    2.7548808    8.3796738 
  248820   -292263.86    1299.2068    2.8202815    2.3922145    2.3283592    7.5408553    2.8074432    2.8165326    2.7509535    8.3749293 
  248830   -292280.82         1300    2.8226072    2.3927084    2.3281259    7.5434414      2.80616    2.8166174    2.7469807    8.3697581 
  248840   -292303.23         1300    2.8247745    2.3932364      2.32723    7.5452409     2.804697    2.8164747    2.7430611    8.3642328 
  248850   -292327.31         1300    2.8267332    2.3937726    2.3262558    7.5467615    2.8031243    2.8160637    2.7392918    8.3584797 
  248860   -292346.52         1300    2.8284389     2.394303    2.3258163    7.5485582    2.8015198    2.8153786     2.735745    8.3526434 
  248870   -292371.44         1300    2.8298387    2.3948359    2.3246714    7.5493459    2.7999678    2.8144196    2.7324626    8.3468501 
  248880   -292396.78         1300    2.8308882    2.3953694    2.3242651    7.5505228    2.7985422    2.8132129    2.7294608    8.3412159 
  248890   -292431.48         1300      2.83156     2.395884    2.3229302    7.5503742    2.7972942    2.8118119    2.7267495    8.3358556 
  248900   -292469.37         1300    2.8318427    2.3963741    2.3217111     7.549928    2.7962549    2.8102967    2.7243329    8.3308846 
  248910   -292505.11         1300    2.8317345    2.3968646    2.3202722    7.5488713    2.7954365    2.8087522    2.7222001    8.3263889 
  248920   -292540.27         1300    2.8312381    2.3973609    2.3184842    7.5470832    2.7948212    2.8072655    2.7203336    8.3224202 
  248930   -292575.88         1300    2.8303569    2.3978634    2.3169607     7.545181    2.7943853    2.8059164    2.7187102    8.3190119 
  248940   -292609.46         1300    2.8290883    2.3983716    2.3146302    7.5420901    2.7941056    2.8047749    2.7173105     8.316191 
  248950   -292634.31         1300    2.8274294    2.3988774    2.3129342    7.5392409    2.7939464    2.8039079    2.7161326    8.3139869 
  248960      -292652         1300    2.8253924    2.3993741    2.3100825     7.534849    2.7938702    2.8033565    2.7151824    8.3124091 
  248970   -292666.93         1300    2.8230014    2.3998605    2.3081598    7.5310216    2.7938438    2.8031422    2.7144729    8.3114589 
  248980    -292675.2         1300    2.8202907    2.4003396    2.3054928    7.5261231    2.7937796    2.8032817     2.713981    8.3110422 
  248990   -292674.18    1299.8835    2.8172969    2.4008161    2.3033488    7.5214619     2.793587    2.8038011    2.7136688    8.3110569 
  249000   -292671.01    1299.5102     2.814051    2.4013119    2.3004932    7.5158561    2.7932107    2.8047173    2.7135085    8.3114365 
  249010   -292663.66         1300    2.8105804    2.4018315    2.2981123    7.5105243    2.7926174    2.8060131    2.7134738    8.3121042 
  249020   -292649.72         1300    2.8068907    2.4023819    2.2956027    7.5048753    2.7918064    2.8076384    2.7135358    8.3129806 
  249030   -292639.47         1300    2.8029981    2.4029778    2.2924021    7.4983781    2.7907826    2.8095095    2.7136629     8.313955 
  249040   -292637.39    1299.7777    2.7989485    2.4036358    2.2896438    7.4922281    2.7895546    2.8115425    2.7138299    8.3149269 
  249050   -292636.12    1299.6608    2.7947849    2.4043599    2.2862983     7.485443    2.7881402    2.8136354    2.7140562    8.3158319 
  249060   -292638.46    1299.9565    2.7905413    2.4051339    2.2833498     7.479025     2.786553    2.8156942    2.7144094    8.3166566 
  249070   -292638.81    1299.9883    2.7862611    2.4059267    2.2801176    7.4723053    2.7848103    2.8176518    2.7149634    8.3174255 
  249080   -292630.18         1300    2.7819747    2.4067026    2.2770376    7.4657149    2.7829325    2.8194527    2.7157974    8.3181827 
  249090   -292616.32         1300    2.7776768    2.4074613    2.2739393    7.4590774    2.7809122    2.8210901    2.7169011    8.3189033 
  249100   -292605.04         1300    2.7733652    2.4081854    2.2709139    7.4524645    2.7787306    2.8225336    2.7182759      8.31954 
  249110   -292592.46         1300    2.7690389    2.4088458    2.2678477    7.4457325    2.7763952    2.8237224    2.7199243    8.3200419 
  249120   -292579.53         1300    2.7646948    2.4093986    2.2648288    7.4389223    2.7739248     2.824588    2.7218344    8.3203471 
  249130   -292569.58         1300    2.7603443    2.4098198    2.2619016    7.4320657    2.7713549    2.8250648    2.7239791    8.3203988 
  249140    -292559.5         1300    2.7560062    2.4101077    2.2588985    7.4250124    2.7687337    2.8250977    2.7263187    8.3201501 
  249150   -292546.93         1300    2.7516892    2.4102759    2.2561704    7.4181354    2.7661088     2.824638    2.7288049    8.3195517 
  249160   -292525.11         1300    2.7473923    2.4103522    2.2536285     7.411373    2.7635272    2.8236425    2.7313826    8.3185523 
  249170   -292506.64         1300    2.7431389    2.4103513    2.2511578     7.404648    2.7610741    2.8220748    2.7339947    8.3171435 
  249180   -292493.69         1300    2.7389687    2.4102733    2.2488293    7.3980713     2.758853    2.8198975    2.7366188    8.3153693 
  249190   -292485.61         1300    2.7349065    2.4101184    2.2469952    7.3920201     2.756922    2.8170898    2.7392587    8.3132705 
  249200   -292484.15    1299.8116    2.7309741    2.4098845    2.2449719    7.3858305     2.755311    2.8136988    2.7418675    8.3108773 
  249210    -292489.5    1300.5291    2.7271916    2.4095715    2.2436968    7.3804599    2.7540332    2.8097923     2.744377    8.3082025 
  249220   -292501.26         1300    2.7235715    2.4091738    2.2419936    7.3747389    2.7530847      2.80546     2.746731    8.3052757 
  249230   -292518.61         1300    2.7201052    2.4086789    2.2404626    7.3692467    2.7524075    2.8008208    2.7489081    8.3021365 
  249240   -292541.03         1300    2.7167786    2.4080752    2.2399874    7.3648413    2.7519068    2.7959865    2.7508698     8.298763 
  249250   -292569.32         1300    2.7135933    2.4073629      2.23883    7.3597862    2.7514969    2.7910635    2.7525297    8.2950902 
  249260   -292602.16         1300    2.7105287    2.4065522    2.2387041    7.3557849    2.7511303    2.7861118    2.7538637    8.2911058 
  249270   -292634.96         1300    2.7075933    2.4056418    2.2379699     7.351205    2.7507921    2.7811851     2.754869    8.2868462 
  249280   -292669.12         1300    2.7047953    2.4046365    2.2381015    7.3475332    2.7504551    2.7763515    2.7555479    8.2823544 
  249290   -292696.82         1300    2.7021284    2.4035776    2.2377765    7.3434825    2.7500633    2.7716877    2.7559294    8.2776804 
  249300   -292724.83         1300    2.6995732     2.402518    2.2376442    7.3397353     2.749575    2.7672404    2.7560524    8.2728678 
  249310   -292757.78         1300    2.6971177     2.401496    2.2383032    7.3369169    2.7489855    2.7630205    2.7559768    8.2679827 
  249320   -292795.01         1300    2.6947615    2.4005292    2.2384996    7.3337903    2.7483099    2.7590194    2.7557833    8.2631127 
  249330   -292830.08         1300    2.6925045    2.3996291    2.2394789    7.3316125     2.747588    2.7552529    2.7555331    8.2583741 
  249340   -292854.24         1300    2.6903439    2.3988157    2.2399257    7.3290853     2.746851    2.7517757    2.7552274    8.2538541 
  249350   -292860.42    1300.7576    2.6883086    2.3981032    2.2411491    7.3275609    2.7461821    2.7486257    2.7548615    8.2496693 
  249360   -292852.85     1299.757    2.6864426    2.3974905     2.241841    7.3257741    2.7456902    2.7457989    2.7544328    8.2459219 
  249370    -292833.7         1300    2.6847619    2.3969619    2.2433097    7.3250335    2.7454207    2.7432949    2.7539305    8.2426462 
  249380   -292803.45         1300    2.6832697    2.3964981    2.2441368    7.3239046    2.7453924    2.7411425    2.7533467    8.2398817 
  249390   -292772.57         1300    2.6819841    2.3960835    2.2456698    7.3237374    2.7456379    2.7393976     2.752687    8.2377224 
  249400   -292741.74         1300    2.6809042    2.3957038    2.2465749     7.323183    2.7461681    2.7380777     2.751974    8.2362197 
  249410   -292705.76         1300     2.680014    2.3953475    2.2475288    7.3228902    2.7469653     2.737199    2.7512419    8.2354062 
  249420   -292669.56         1300    2.6792713    2.3950193    2.2488773    7.3231679    2.7479969    2.7367981    2.7505311    8.2353262 
  249430    -292639.6         1300    2.6786516    2.3947408    2.2499241    7.3233165    2.7492431    2.7369066    2.7498838    8.2360335 
  249440    -292615.5         1300    2.6781406     2.394537    2.2509269    7.3236045    2.7506127    2.7375557      2.74932    8.2374884 
  249450   -292600.13         1300    2.6777272    2.3944248     2.252129    7.3242811    2.7519346    2.7387733    2.7487974    8.2395054 
  249460   -292593.06    1299.0814    2.6774226    2.3944158    2.2534396     7.325278      2.75312    2.7405303    2.7482677    8.2419179 
  249470   -292588.56         1300    2.6772456    2.3945165    2.2543218    7.3260839    2.7540863    2.7427656    2.7477233    8.2445752 
  249480   -292589.52    1300.0996    2.6771925    2.3947292    2.2558798    7.3278015    2.7547533    2.7454556     2.747173    8.2473819 
  249490   -292591.49    1300.3412    2.6772494    2.3950524    2.2568784    7.3291802    2.7550837    2.7485534    2.7466274    8.2502645 
  249500   -292592.85    1300.5157    2.6773996    2.3954616    2.2586523    7.3315135    2.7550902    2.7519926    2.7461312    8.2532139 
  249510   -292585.19     1299.566    2.6776382    2.3959264    2.2598442    7.3334088    2.7548286    2.7556703     2.745741    8.2562399 
  249520   -292584.49    1299.5042     2.677982    2.3964463    2.2618443    7.3362726     2.754355    2.7594508    2.7454799    8.2592858 
  249530   -292592.47    1300.6109    2.6784282    2.3970357    2.2639612    7.3394251    2.7537552    2.7632232    2.7454153    8.2623937 
  249540   -292604.31         1300    2.6789666    2.3977055    2.2655456    7.3422177    2.7530721    2.7668935    2.7455638    8.2655294 
  249550   -292612.79         1300    2.6795884    2.3984443    2.2679004    7.3459331    2.7523514    2.7703559     2.745875    8.2685823 
  249560   -292617.54    1300.6504    2.6802815    2.3992316    2.2696724    7.3491854    2.7516866    2.7734833    2.7462891     8.271459 
  249570   -292620.37         1300    2.6810261    2.4000489    2.2722356    7.3533106    2.7511659    2.7761242     2.746745    8.2740351 
  249580   -292616.63     1299.574    2.6818111    2.4008765    2.2739391    7.3566266    2.7508982    2.7781674    2.7471452    8.2762107 
  249590   -292618.79    1299.8783    2.6826387     2.401687     2.276754    7.3610797    2.7509237    2.7795829    2.7474305    8.2779371 
  249600   -292624.18    1300.5817    2.6835059    2.4024608    2.2785287    7.3644954    2.7511954    2.7803778    2.7475836    8.2791567 
  249610   -292626.62     1300.921    2.6844146    2.4031851    2.2816635    7.3692631    2.7517065    2.7805819    2.7475972    8.2798856 
  249620   -292619.67    1300.0294    2.6853716    2.4038519    2.2849969    7.3742204    2.7524176    2.7802557    2.7474954    8.2801687 
  249630    -292609.9         1300     2.686371    2.4044607    2.2872632    7.3780949    2.7532625    2.7794759    2.7473054    8.2800437 
  249640   -292602.23     1299.001    2.6873801    2.4050046    2.2910305    7.3834152    2.7541337    2.7783318    2.7470855     8.279551 
  249650   -292594.88         1300    2.6883899    2.4054709    2.2939523    7.3878132    2.7549614    2.7769127    2.7468952    8.2787693 
  249660   -292588.94    1299.2324    2.6894083    2.4058558    2.2980739    7.3933381    2.7557193     2.775301    2.7467916    8.2778119 
  249670   -292578.64         1300    2.6904328    2.4061528    2.3015329    7.3981185     2.756335    2.7735715    2.7467969    8.2767033 
  249680   -292564.69         1300    2.6914515    2.4063552    2.3059407    7.4037474    2.7567115    2.7717825     2.746944     8.275438 
  249690   -292547.72         1300    2.6924541    2.4064805    2.3105646    7.4094993    2.7568249    2.7699943    2.7472822    8.2741014 
  249700   -292522.42         1300    2.6934257    2.4065644    2.3152189     7.415209     2.756696    2.7682692    2.7478757     8.272841 
  249710    -292498.8         1300    2.6943565    2.4066178    2.3201104    7.4210846    2.7563414    2.7666241    2.7487725     8.271738 
  249720   -292483.26         1300    2.6952647    2.4066301    2.3249612     7.426856    2.7557446    2.7651051    2.7500174    8.2708671 
  249730   -292482.15    1299.8078    2.6961671    2.4065949    2.3298834    7.4326454    2.7548781    2.7637695    2.7516537    8.2703013 
  249740   -292489.65    1300.7816     2.697063    2.4065277    2.3348765    7.4384672    2.7537322    2.7626558    2.7536951    8.2700831 
  249750   -292501.53         1300    2.6979499    2.4064612    2.3399276    7.4443387    2.7523069     2.761807     2.756101     8.270215 
  249760   -292516.88         1300    2.6988372    2.4063958    2.3448964    7.4501293    2.7506026    2.7612575    2.7588714    8.2707315 
  249770   -292539.72         1300    2.6997392    2.4063301     2.350017    7.4560863    2.7486253    2.7610563    2.7620246    8.2717061 
  249780   -292562.33         1300    2.7006601     2.406268    2.3549063    7.4618344    2.7463972    2.7612812    2.7655662    8.2732447 
  249790   -292585.42         1300     2.701579    2.4061851    2.3600209    7.4677849    2.7439487     2.762011    2.7694872    8.2754468 
  249800   -292615.64         1300    2.7024875    2.4060569    2.3653508    7.4738952    2.7413209    2.7632838    2.7737592     8.278364 
  249810    -292651.6         1300    2.7033972    2.4059165    2.3703158    7.4796296    2.7385578    2.7651144    2.7783075    8.2819797 
  249820   -292683.71         1300    2.7042943    2.4057976     2.375418    7.4855098    2.7356984    2.7674966    2.7830215    8.2862165 
  249830   -292706.36         1300    2.7051573    2.4057161    2.3802385    7.4911119    2.7327825    2.7703931    2.7877797    8.2909553 
  249840   -292717.64         1300    2.7059718    2.4056795    2.3848045    7.4964558    2.7298474    2.7737376    2.7924408    8.2960258 
  249850   -292709.02         1300    2.7067388    2.4056998    2.3891824     7.501621    2.7269233    2.7774645    2.7968611    8.3012489 
  249860   -292685.11         1300    2.7074618    2.4058067    2.3934121    7.5066806    2.7240511    2.7815269    2.8009241     8.306502 
  249870    -292656.9         1300    2.7081304    2.4060295    2.3973071    7.5114671    2.7212899    2.7858662    2.8045413    8.3116973 
  249880   -292618.19         1300    2.7087415    2.4063836    2.4011451    7.5162703    2.7187206    2.7904328    2.8076312    8.3167845 
  249890   -292572.79         1300    2.7093119    2.4068663    2.4050196    7.5211978    2.7164009    2.7951252     2.810106    8.3216321 
  249900   -292533.08         1300    2.7098583    2.4074739    2.4084098     7.525742     2.714359    2.7997937    2.8118875    8.3260401 
  249910   -292500.53         1300    2.7103854    2.4082172      2.41157    7.5301726     2.712602    2.8042973    2.8129444    8.3298437 
  249920   -292481.68         1300    2.7108917    2.4091095    2.4149009    7.5349021    2.7111218    2.8085106    2.8132968    8.3329292 
  249930   -292480.05    1299.8024    2.7113921    2.4101373    2.4176188    7.5391483    2.7098925    2.8123198    2.8129837    8.3351961 
  249940   -292488.63    1300.9979    2.7118972    2.4112589    2.4203975    7.5435535    2.7088678    2.8156296    2.8120321    8.3365295 
  249950   -292510.68         1300    2.7124158    2.4124396    2.4227169    7.5475723    2.7080093    2.8183708    2.8104624    8.3368426 
  249960   -292540.07         1300    2.7129574    2.4136746    2.4265535    7.5531856    2.7073144    2.8204837    2.8083119      8.33611 
  249970    -292571.2         1300    2.7135257    2.4149583    2.4285522    7.5570362    2.7067965    2.8219126     2.805629     8.334338 
  249980   -292604.83         1300    2.7141249    2.4162823    2.4304327    7.5608398    2.7064725    2.8226228    2.8024676     8.331563 
  249990   -292633.08         1300    2.7147597    2.4176219    2.4337206    7.5661021     2.706375    2.8225815     2.798885    8.3278415 
  250000   -292650.69         1300    2.7154391    2.4189503    2.4354074    7.5697969    2.7065127    2.8217703    2.7949437    8.3232266 
Loop time of 10963.7 on 32 procs for 250000 steps with 2577 atoms

Performance: 0.394 ns/day, 60.909 hours/ns, 22.803 timesteps/s
100.0% CPU use with 32 MPI tasks x no OpenMP threads

MPI task timing breakdown:
Section |  min time  |  avg time  |  max time  |%varavg| %total
---------------------------------------------------------------
Pair    | 4965.3     | 7229.4     | 9640.5     |1753.8 | 65.94
Neigh   | 63.823     | 96.495     | 127.79     | 272.7 |  0.88
Comm    | 66.57      | 2219.5     | 3924.6     |2723.6 | 20.24
Output  | 43.549     | 43.569     | 43.623     |   0.2 |  0.40
Modify  | 1078       | 1141.8     | 1253.7     | 190.3 | 10.41
Other   |            | 232.9      |            |       |  2.12

Nlocal:    80.5312 ave 98 max 60 min
Histogram: 1 2 4 1 5 5 5 3 3 3
Nghost:    1838.81 ave 2318 max 1331 min
Histogram: 8 5 3 0 0 0 0 0 7 9
Neighs:    24666.5 ave 33933 max 15479 min
Histogram: 4 3 2 4 2 5 3 2 3 4

Total # of neighbors = 789329
Ave neighs/atom = 306.298
Neighbor list builds = 11373
Dangerous builds = 0

Please see the log.cite file for references relevant to this simulation

Total wall time: 3:02:43
