LAMMPS (7 Aug 2019)
# Fe3O4 -- [0, 1, 0][1, 0, 0] grain boundary
# atom types: 1 -- Fe, 2 -- O
# units real: mass = g/mole; dist = Angstroms; time = fs;
# energy = Kcal/mole = 4184 J/mole

units 		real
dimension	3
atom_style	charge
neigh_modify	delay 5
neighbor	0.3 bin

#---------------------Geometry of the model------------------

variable a equal 6.1602
variable b equal 6.1877
variable c equal 6.1868

region box block 0 $(3*v_c) 0 42.4 0 40 units box
region box block 0 18.560400000000001342 0 42.4 0 40 units box
boundary	p p s
create_box 2 box
Created orthogonal box = (0 0 0) to (18.5604 42.4 40)
  2 by 4 by 4 MPI processor grid

read_data	annealedboundary.data	add append
  orthogonal box = (0 0 -0.171776) to (18.5604 42.4 41.6292)
  2 by 4 by 4 MPI processor grid
  reading atoms ...
  2577 atoms
  reading velocities ...
  2577 velocities
  read_data CPU = 0.0130506 secs

region boundary block -1000 1000 -1000 1000 10 22
group boundary region boundary
719 atoms in group boundary
group Fe type 1
1149 atoms in group Fe
group O type 2
1428 atoms in group O
group Feb intersect boundary Fe #Fe in the boundary
312 atoms in group Feb
group Ob intersect boundary O #O in the boundary
407 atoms in group Ob

#---------------Define potential and run minimization

pair_style	reax/c	NULL
pair_coeff	* *	ffield.reax.Fe_O_C_H Fe O
Reading potential file ffield.reax.Fe_O_C_H with DATE: 2011-02-18
fix             2 all qeq/reax 1 0.0 10.0 1e-6 reax/c

compute	  	T all temp
compute 	atomdisp boundary displace/atom
compute		avesqdispFe1 Feb reduce avesq c_atomdisp[1]
compute         avesqdispFe2 Feb reduce avesq c_atomdisp[2]
compute         avesqdispFe3 Feb reduce avesq c_atomdisp[3]
compute         avesqdispFe4 Feb reduce avesq c_atomdisp[4]
compute         avesqdispO1 Ob reduce avesq c_atomdisp[1]
compute         avesqdispO2 Ob reduce avesq c_atomdisp[2]
compute         avesqdispO3 Ob reduce avesq c_atomdisp[3]
compute         avesqdispO4 Ob reduce avesq c_atomdisp[4]

fix 		1 all nve
timestep 	0.2
thermo		10
thermo_style 	custom step pe c_T 	c_avesqdispFe1 c_avesqdispFe2 	c_avesqdispFe3 c_avesqdispFe4 	c_avesqdispO1 c_avesqdispO2 	c_avesqdispO3 c_avesqdispO4

dump		1 all custom 10 dump1400 id type x y z c_atomdisp[4]

velocity	all create 1400 239239239
fix 		3 all temp/rescale 10 1400 1400 1 1.0

run 250000
Neighbor list info ...
  update every 1 steps, delay 5 steps, check yes
  max neighbors/atom: 2000, page size: 100000
  master list distance cutoff = 10.3
  ghost atom cutoff = 10.3
  binsize = 5.15, bins = 4 9 9
  2 neighbor lists, perpetual/occasional/extra = 2 0 0
  (1) pair reax/c, perpetual
      attributes: half, newton off, ghost
      pair build: half/bin/newtoff/ghost
      stencil: half/ghost/bin/3d/newtoff
      bin: standard
  (2) fix qeq/reax, perpetual, copy from (1)
      attributes: half, newton off, ghost
      pair build: copy
      stencil: none
      bin: none
Per MPI rank memory allocation (min/avg/max) = 36.41 | 45.46 | 53.73 Mbytes
Step PotEng c_T c_avesqdispFe1 c_avesqdispFe2 c_avesqdispFe3 c_avesqdispFe4 c_avesqdispO1 c_avesqdispO2 c_avesqdispO3 c_avesqdispO4 
       0   -294261.51         1400            0            0            0            0            0            0            0            0 
      10   -294215.84         1400 8.4398523e-05 9.2640464e-05 8.7515889e-05 0.00026455488 0.00028679655 0.00028422308 0.00029864586 0.00086966548 
      20   -294091.66         1400 0.00033809564 0.00037205797 0.00035072448 0.0010608781 0.0011353528 0.0011318723 0.0011934869  0.003460712 
      30   -293922.05         1400 0.00076224667 0.00084100086 0.00080299175 0.0024062393 0.0025223687 0.0025320679 0.0026757563 0.0077301928 
      40   -293714.74         1400 0.0013580849 0.0015018207  0.001423138 0.0042830436 0.0044163924 0.0044660821 0.0047255671  0.013608042 
      50   -293487.01         1400 0.0021267069 0.0023558684  0.002221745 0.0067043203 0.0067794307 0.0069072298  0.007310345  0.020997005 
      60   -293246.65         1400 0.0030678175 0.0034031012 0.0032111458 0.0096820644 0.0095694156  0.009818981  0.010384463   0.02977286 
      70   -292999.09         1400 0.0041804584 0.0046417533 0.0043569053  0.013179117  0.012738251  0.013152992  0.013893743  0.039784986 
      80   -292744.41         1400 0.0054634499 0.0060669931 0.0056622634  0.017192706  0.016230895  0.016853962  0.017777708  0.050862565 
      90   -292476.25         1400 0.0069146651  0.007670712  0.007125937  0.021711314  0.019991551  0.020866296   0.02197602  0.062833868 
     100   -292200.66         1400 0.0085308922 0.0094427227 0.0087186719  0.026692287  0.023974881  0.025133655  0.026428346  0.075536882 
     110   -291940.92         1400  0.010307176  0.011371468   0.01047434  0.032152983  0.028138324  0.029597267  0.031070983  0.088806574 
     120   -291693.54         1400  0.012237032  0.013443411  0.012363442  0.038043886  0.032431268  0.034205978   0.03583541   0.10247266 
     130   -291477.84         1400  0.014314455  0.015645476  0.014376614  0.044336545  0.036802033  0.038911413  0.040663151    0.1163766 
     140   -291296.77         1400  0.016529589  0.017962795  0.016502157  0.050994541  0.041198763  0.043665543  0.045505105   0.13036941 
     150   -291146.39         1400  0.018867582  0.020380145  0.018720212  0.057967939  0.045575674  0.048424504  0.050314621    0.1443148 
     160   -291024.67         1400  0.021312078  0.022882744  0.021030338  0.065225159  0.049894099   0.05314482  0.055050314   0.15808923 
     170   -290910.05         1400  0.023844611  0.025457405   0.02338547  0.072687486  0.054122588  0.057786704  0.059668377   0.17157767 
     180   -290800.69         1400  0.026449214  0.028092694  0.025817439  0.080359348  0.058226855  0.062313407  0.064129503   0.18466976 
     190   -290696.01         1400  0.029108941  0.030776829  0.028304061  0.088189831  0.062168929  0.066686417  0.068398415   0.19725376 
     200    -290609.5         1400  0.031804935  0.033499852  0.030813446  0.096118233  0.065916551  0.070868443  0.072445245   0.20923024 
     210   -290546.43         1400  0.034520033  0.036250254  0.033411327   0.10418161   0.06944657  0.074831693  0.076237047   0.22051531 
     220   -290488.58         1400  0.037241531  0.039009257  0.035956353   0.11220714  0.072753075  0.078569637  0.079736685    0.2310594 
     230   -290458.95         1400  0.039961872  0.041759853  0.038507691   0.12022942  0.075834156  0.082071043  0.082913778   0.24081898 
     240   -290459.59    1400.1203  0.042667986  0.044490706  0.041044848   0.12820354  0.078675307  0.085315672  0.085761078   0.24975206 
     250   -290477.08         1400   0.04534803  0.047197712  0.043580553   0.13612629  0.081252691  0.088290998  0.088289326   0.25783302 
     260   -290498.04         1400  0.047993839  0.049874785  0.046089995   0.14395862  0.083560098  0.090983325  0.090506968   0.26505039 
     270   -290521.89         1400  0.050598236   0.05251683  0.048577086   0.15169215  0.085601737  0.093377597  0.092419295   0.27139863 
     280    -290547.4         1400  0.053151242  0.055116336  0.051030313   0.15929789  0.087376813   0.09545696  0.094032967   0.27686674 
     290   -290571.08         1400  0.055640508  0.057664109  0.053445426   0.16675004  0.088890515  0.097220471  0.095361632   0.28147262 
     300   -290597.68         1400  0.058055565  0.060158509  0.055825694   0.17403977  0.090162554  0.098673599  0.096424045    0.2852602 
     310   -290622.31         1400  0.060389201  0.062589967  0.058181034    0.1811602  0.091233357   0.09981866  0.097228388   0.28828041 
     320   -290647.41         1400  0.062633819  0.064950354  0.060533679   0.18811785  0.092144986    0.1006646  0.097781687   0.29059128 
     330   -290670.49         1400  0.064785797  0.067240881  0.062846265   0.19487294  0.092916738   0.10123791  0.098075497   0.29223014 
     340   -290689.35         1400  0.066845236  0.069460654  0.065160122   0.20146601  0.093567046   0.10157781  0.098103469   0.29324833 
     350   -290685.62    1399.5176  0.068811224   0.07160554  0.067407087   0.20782385  0.094117178   0.10172871  0.097874764   0.29372065 
     360   -290678.08         1400  0.070684582  0.073673869  0.069716027   0.21407448  0.094587995   0.10173114  0.097406956    0.2937261 
     370   -290679.44    1400.1742  0.072460618  0.075671513   0.07186633   0.21999846   0.09499077   0.10162161  0.096722298   0.29333468 
     380   -290670.01         1400   0.07413459  0.077603083  0.074291623    0.2260293  0.095335725   0.10142863  0.095863011   0.29262737 
     390   -290661.45         1400   0.07571459  0.079464603  0.076327826   0.23150702   0.09564789   0.10117271  0.094884068   0.29170467 
     400   -290656.02    1399.2839  0.077211303   0.08124301  0.078764977   0.23721929  0.095945459   0.10086793  0.093848374   0.29066177 
     410   -290653.72         1400  0.078628944  0.082932791  0.080680151   0.24224189  0.096235289   0.10053874    0.0927928   0.28956683 
     420    -290643.4         1400  0.079967825  0.084533166  0.083071763   0.24757275  0.096522606   0.10020703  0.091757987   0.28848762 
     430   -290624.74         1400  0.081228096  0.086043572  0.084836393   0.25210806  0.096807435  0.099891611  0.090783933   0.28748298 
     440   -290613.56         1400  0.082410857   0.08746671  0.087186244   0.25706381  0.097084076  0.099619703   0.08990703   0.28661081 
     450   -290607.11    1399.1899     0.083521  0.088806114  0.088795536   0.26112265  0.097346362  0.099409312  0.089167977   0.28592365 
     460   -290594.51         1400  0.084555769  0.090063132  0.090989617   0.26560852  0.097598507  0.099281245  0.088600333   0.28548008 
     470   -290581.27         1400  0.085514847  0.091239786   0.09243303   0.26918766  0.097845261  0.099256976    0.0882193   0.28532154 
     480   -290581.26    1399.9539  0.086406531  0.092338892  0.094397385   0.27314281  0.098090802  0.099346937  0.088030564    0.2854683 
     490   -290588.54    1400.8405  0.087240469  0.093364111  0.095656158   0.27626074  0.098338927  0.099544776  0.088031405   0.28591511 
     500   -290586.54    1400.5482  0.088023239  0.094314648  0.097342998   0.27968088  0.098585785  0.099838463   0.08822358   0.28664783 
     510   -290576.52     1399.273  0.088766655  0.095177086   0.09843275   0.28237649  0.098825776    0.1002101  0.088619604   0.28765548 
     520   -290565.21         1400  0.089483712  0.095947161  0.099444427    0.2848753   0.09904542   0.10064883  0.089226478   0.28892073 
     530   -290556.55         1400  0.090182494  0.096629039   0.10071845   0.28752999  0.099244957   0.10114808  0.090046885   0.29043992 
     540   -290551.23    1399.3335  0.090866856  0.097228355   0.10159252   0.28968773  0.099428568   0.10171239  0.091072986   0.29221394 
     550   -290545.29         1400  0.091538911   0.09775473   0.10248263   0.29177627  0.099603505   0.10235803  0.092280963    0.2942425 
     560   -290548.98    1400.5033  0.092207462  0.098222885   0.10314875    0.2935791   0.09978907   0.10307887  0.093651278   0.29651922 
     570   -290566.47         1400  0.092878551  0.098648254   0.10383327   0.29536007   0.10000481   0.10387054  0.095156872   0.29903221 
     580   -290585.34         1400  0.093550107  0.099057942   0.10432417   0.29693222   0.10025175   0.10472708  0.096750121   0.30172895 
     590   -290603.69         1400   0.09422313  0.099468586   0.10486795   0.29855967   0.10055295   0.10563445  0.098405235   0.30459264 
     600   -290632.22         1400  0.094900923  0.099890484    0.1053401   0.30013151   0.10093498   0.10658164   0.10010577   0.30762239 
     610   -290660.79         1400  0.095585305   0.10033212   0.10649392   0.30241135   0.10141035   0.10756347   0.10183753   0.31081135 
     620    -290683.6         1400  0.096277062    0.1007984   0.10681791   0.30389338   0.10198692   0.10857552   0.10359086    0.3141533 
     630   -290696.21         1400  0.096975445   0.10129417   0.10780379   0.30607341   0.10266919   0.10961544   0.10536028   0.31764491 
     640   -290700.15    1400.5681  0.097673112   0.10182083   0.10796727   0.30746121   0.10347523   0.11068602   0.10714379   0.32130505 
     650      -290706         1400  0.098371935   0.10236378   0.10881046   0.30954617   0.10443037   0.11178621    0.1089524   0.32516899 
     660   -290721.52         1400  0.099080631   0.10291104   0.10884551   0.31083718   0.10552753     0.112909   0.11078034   0.32921687 
     670   -290736.28         1400    0.0998038   0.10345795   0.10953898   0.31280073   0.10675156   0.11405688   0.11260189   0.33341033 
     680   -290730.34    1399.2451   0.10054121   0.10399771   0.10946173   0.31400065   0.10808327   0.11523972   0.11438979   0.33771278 
     690   -290718.28         1400   0.10129028   0.10452644   0.10990421   0.31572093   0.10949338   0.11646468    0.1161379   0.34209596 
     700   -290710.14         1400   0.10204966   0.10504239    0.1097254   0.31681745   0.11095329   0.11772971    0.1178452   0.34652819 
     710    -290704.5    1399.2474   0.10281947    0.1055456   0.10994581   0.31831088   0.11243582    0.1190237   0.11949954   0.35095905 
     720   -290677.85         1400    0.1035987   0.10603926   0.10970152   0.31933949   0.11392178   0.12033245   0.12106505   0.35531928 
     730   -290652.16         1400   0.10438362   0.10652673   0.10944653   0.32035688   0.11539676   0.12164483   0.12251794   0.35955953 
     740   -290625.52         1400   0.10516749   0.10700767   0.10974054    0.3219157   0.11684498   0.12294445   0.12384341   0.36363283 
     750   -290610.65         1400   0.10594714   0.10747871   0.10950879   0.32293464   0.11826255   0.12421585   0.12504366   0.36752205 
     760   -290599.03         1400   0.10672478   0.10792968   0.10975677   0.32441123   0.11965267   0.12543702   0.12612468   0.37121438 
     770   -290592.81    1399.1865   0.10750035   0.10836464   0.10959218   0.32545716   0.12101638   0.12658619   0.12708707   0.37468963 
     780    -290581.9         1400   0.10827029   0.10879336   0.10968104   0.32674469   0.12234369   0.12764553   0.12792894   0.37791817 
     790   -290553.52         1400   0.10903991   0.10921954   0.10959735    0.3278568   0.12362669   0.12860292   0.12866661   0.38089622 
     800   -290509.54         1400    0.1098133   0.10963763    0.1094912   0.32894213   0.12485757   0.12945272   0.12930938   0.38361967 
     810   -290468.73         1400   0.11058652   0.11003895   0.10949404   0.33011951   0.12603965   0.13019397   0.12985123   0.38608485 
     820   -290432.11         1400   0.11135821   0.11041912   0.10920558   0.33098291   0.12718526   0.13081846   0.13029152   0.38829524 
     830   -290408.91         1400   0.11212292   0.11077962   0.10927809   0.33218063   0.12828312   0.13132331   0.13062736    0.3902338 
     840   -290387.73         1400    0.1128731   0.11112527   0.10900761   0.33300598   0.12932365   0.13171816   0.13085201   0.39189382 
     850   -290361.44         1400   0.11360571   0.11146026   0.10912816   0.33419414   0.13030073   0.13201171   0.13098134   0.39329378 
     860   -290340.88         1400   0.11431913   0.11178649   0.10904211   0.33514773   0.13120975   0.13220164   0.13101671   0.39442809 
     870   -290326.74         1400   0.11501067   0.11210446   0.10921324   0.33632837   0.13205077   0.13227217   0.13095066    0.3952736 
     880   -290331.17    1400.5757   0.11567593   0.11241537   0.10912577   0.33721707   0.13283385   0.13221157    0.1307834   0.39582881 
     890   -290373.62         1400   0.11631327   0.11272188   0.10937633   0.33841147   0.13358168   0.13201292   0.13053021   0.39612481 
     900   -290445.98         1400   0.11691444    0.1130251   0.10934627   0.33928581   0.13430405   0.13168832   0.13020302    0.3961954 
     910   -290518.53         1400   0.11747272   0.11332737   0.10966811   0.34046821   0.13501154   0.13126801   0.12982313   0.39610268 
     920   -290576.13         1400   0.11798508   0.11363251   0.11000436   0.34162195   0.13571787   0.13079315   0.12942243   0.39593346 
     930   -290609.65         1400   0.11844969     0.113937   0.11007108   0.34245777   0.13642705   0.13029184    0.1290385    0.3957574 
     940   -290633.02         1400   0.11886449   0.11423498   0.11041592    0.3435154   0.13712588   0.12978307   0.12870747   0.39561643 
     950   -290651.99         1400   0.11923493   0.11452394   0.11067078   0.34442965   0.13780102   0.12929193   0.12846337   0.39555632 
     960   -290655.68    1400.5141   0.11956626   0.11481246   0.11099793   0.34537665   0.13842275   0.12885922   0.12830555   0.39558753 
     970   -290660.86         1400   0.11985669   0.11510209    0.1114587   0.34641748   0.13898243   0.12849064   0.12823982   0.39571289 
     980    -290652.7         1400   0.12010504   0.11539261   0.11174157   0.34723922   0.13948922   0.12817831   0.12826711   0.39593464 
     990   -290622.27         1400   0.12031371   0.11568491   0.11240756   0.34840617   0.13994689   0.12792478   0.12838138   0.39625305 
    1000    -290586.1         1400   0.12048658   0.11598122   0.11263247   0.34910026   0.14035814   0.12773195    0.1285759   0.39666599 
    1010   -290555.48         1400   0.12062743   0.11628899   0.11283047   0.34974689   0.14073294   0.12761501    0.1288278   0.39717575 
    1020   -290527.21         1400   0.12073923   0.11661604   0.11333846   0.35069373   0.14108697   0.12759525   0.12909637   0.39777859 
    1030   -290496.55         1400   0.12082523   0.11696325   0.11349017   0.35127866    0.1414445   0.12767838   0.12933713      0.39846 
    1040   -290467.74         1400   0.12088953   0.11733056   0.11368248   0.35190258   0.14181901   0.12785984   0.12953208   0.39921093 
    1050   -290457.53         1400   0.12094045   0.11771697   0.11382332   0.35248073   0.14220746   0.12813211   0.12966377   0.40000334 
    1060   -290454.54    1399.5989   0.12098808   0.11812024   0.11381403   0.35292235    0.1425958   0.12849191   0.12969358   0.40078129 
    1070   -290459.35    1400.2436   0.12104034   0.11853736   0.11399809   0.35357579   0.14297166   0.12893413   0.12961239   0.40151818 
    1080   -290472.69         1400   0.12110321   0.11896498   0.11415589   0.35422408   0.14332774   0.12944876   0.12943456   0.40221106 
    1090   -290479.17    1400.8513   0.12118141   0.11939721   0.11440091   0.35497953   0.14365636   0.13002018   0.12918691   0.40286345 
    1100   -290468.65    1399.4623   0.12127308   0.11983553   0.11512123   0.35622984   0.14396339   0.13062161   0.12890024   0.40348524 
    1110   -290456.04         1400    0.1213738   0.12028409   0.11540843   0.35706632   0.14425592   0.13122794   0.12860838   0.40409224 
    1120   -290445.19         1400   0.12148394   0.12074124   0.11597872    0.3582039   0.14454392   0.13180961   0.12835355   0.40470708 
    1130   -290436.44         1400   0.12160556   0.12119696   0.11630763   0.35911015   0.14484277   0.13232865   0.12817396   0.40534537 
    1140   -290427.21         1400   0.12173759   0.12163549   0.11671198   0.36008506   0.14514882   0.13277692   0.12807341   0.40599915 
    1150   -290416.37         1400   0.12187867   0.12204626   0.11706546   0.36099039   0.14546054   0.13315107   0.12805407   0.40666568 
    1160   -290407.97         1400   0.12202845   0.12242702   0.11732045   0.36177592   0.14577614   0.13344852   0.12812324   0.40734791 
    1170   -290392.74         1400   0.12218832   0.12278007   0.11767857   0.36264696   0.14609007   0.13366562   0.12828109   0.40803678 
    1180   -290371.86         1400    0.1223541   0.12310885   0.11803474   0.36349769   0.14638216   0.13380612   0.12852092    0.4087092 
    1190   -290361.32         1400   0.12252318   0.12341631   0.11817925   0.36411874   0.14663329   0.13387779   0.12884407   0.40935514 
    1200   -290345.77         1400   0.12269591    0.1237116   0.11853892   0.36494643   0.14685023   0.13388543   0.12926522   0.41000088 
    1210   -290322.56         1400   0.12287379   0.12399711   0.11861637   0.36548728   0.14702646   0.13385083   0.12978731   0.41066459 
    1220   -290302.32         1400    0.1230544    0.1242765   0.11899354   0.36632444   0.14715484   0.13381243   0.13040193    0.4113692 
    1230   -290291.64         1400   0.12323349   0.12455973   0.11914744   0.36694067   0.14723526   0.13379674   0.13110533   0.41213734 
    1240   -290288.66    1399.6119   0.12341293   0.12484849   0.11953777    0.3677992   0.14729175   0.13380778   0.13190576   0.41300529 
    1250   -290286.28    1399.3269   0.12359746   0.12513943   0.11969073   0.36842762   0.14734495   0.13385929   0.13281063   0.41401488 
    1260   -290281.45         1400   0.12379113   0.12542934     0.120068   0.36928847   0.14740422   0.13398086   0.13383446   0.41521955 
    1270   -290280.34    1399.8443   0.12399979   0.12571743    0.1204267   0.37014392   0.14747565   0.13419063   0.13498279   0.41664907 
    1280   -290290.72         1400    0.1242272   0.12600467   0.12046567   0.37069753   0.14756204   0.13449964   0.13625272    0.4183144 
    1290    -290304.5         1400   0.12447541   0.12628956   0.12075445   0.37151942   0.14767778   0.13491645   0.13764183   0.42023606 
    1300    -290327.1         1400   0.12474263   0.12657405   0.12062035   0.37193704   0.14783667   0.13544944   0.13913399   0.42242011 
    1310   -290379.32         1400   0.12502486   0.12686644   0.12079328   0.37268459   0.14803227   0.13610692   0.14070398   0.42484317 
    1320   -290444.63         1400   0.12532135   0.12717332   0.12046066   0.37295532   0.14824434   0.13689143   0.14232489   0.42746066 
    1330   -290498.43         1400   0.12563921    0.1275005   0.12051803   0.37365774   0.14844956   0.13779363   0.14394739   0.43019058 
    1340   -290544.54         1400   0.12598834     0.127853   0.12003559   0.37387694   0.14865663   0.13878678   0.14551941   0.43296281 
    1350   -290598.42         1400   0.12637539   0.12823238   0.11998348   0.37459125   0.14887298   0.13985203    0.1469977   0.43572271 
    1360   -290650.16         1400   0.12680267   0.12863915   0.11988607   0.37532789     0.149101   0.14097753   0.14834584   0.43842437 
    1370   -290696.92         1400    0.1272677   0.12907036   0.11947445    0.3758125   0.14934698   0.14213882   0.14953671   0.44102251 
    1380   -290733.55         1400   0.12776872   0.12951313   0.11930146   0.37658331   0.14962079   0.14329783   0.15055801   0.44347663 
    1390    -290762.6         1400   0.12830722    0.1299475   0.11907216   0.37732688   0.14993199    0.1444299   0.15140471    0.4457666 
    1400   -290767.26    1400.6105   0.12888383    0.1303614   0.11883708    0.3780823   0.15029535   0.14552485   0.15207488   0.44789507 
    1410   -290760.02    1399.6866   0.12949836   0.13075183   0.11853081     0.378781     0.150731   0.14657017   0.15257725   0.44987842 
    1420   -290754.26         1400   0.13014422   0.13112732   0.11823629   0.37950783    0.1512555   0.14756248   0.15292917   0.45174715 
    1430   -290758.31    1400.5196   0.13080943   0.13150899   0.11826604   0.38058445   0.15187408   0.14851205   0.15316023   0.45354636 
    1440   -290765.11         1400   0.13148777   0.13190512   0.11793507   0.38132796   0.15259241   0.14941947    0.1532881   0.45529997 
    1450    -290778.1         1400   0.13217911   0.13231703   0.11759522   0.38209136   0.15342435   0.15028175   0.15332208   0.45702819 
    1460   -290786.09         1400   0.13288429   0.13274448   0.11791733    0.3835461   0.15437391   0.15109108   0.15327067   0.45873566 
    1470   -290772.15         1400   0.13360276   0.13318458   0.11758545   0.38437279   0.15542217   0.15183964   0.15313817   0.46039998 
    1480   -290745.09         1400   0.13433801   0.13362403   0.11807849   0.38604054    0.1565539    0.1525178   0.15294565   0.46201735 
    1490   -290727.71         1400   0.13508993    0.1340482   0.11779741   0.38693554   0.15775981   0.15311491   0.15272117   0.46359589 
    1500   -290711.15         1400    0.1358508   0.13445393   0.11842754   0.38873227   0.15903292   0.15362667   0.15249156   0.46515114 
    1510   -290672.05         1400   0.13661317   0.13484505   0.11818072   0.38963893   0.16037139   0.15403572   0.15228654   0.46669365 
    1520   -290612.39         1400   0.13737647   0.13522946   0.11887359   0.39147952   0.16178238   0.15432542   0.15212532   0.46823312 
    1530   -290565.74         1400    0.1381355   0.13560364   0.11863739   0.39237652   0.16327723   0.15450672   0.15202302   0.46980696 
    1540    -290539.8         1400   0.13888478   0.13596463   0.11935148   0.39420089   0.16484401    0.1545936   0.15198276   0.47142037 
    1550   -290519.15         1400   0.13962827   0.13630754   0.11913489    0.3950707   0.16645509   0.15459333   0.15199713   0.47304555 
    1560   -290494.28         1400   0.14037549    0.1366229   0.11980688   0.39680526    0.1681034   0.15451334   0.15204683   0.47466356 
    1570   -290457.17         1400   0.14113092   0.13690071   0.11958029   0.39761192   0.16978949   0.15437243   0.15211134   0.47627326 
    1580   -290414.57         1400   0.14189401   0.13712799   0.11934913   0.39837114   0.17151309   0.15419769    0.1521697   0.47788047 
    1590   -290376.74         1400   0.14266496   0.13728944   0.11997308   0.39992748   0.17325676   0.15400591   0.15220403   0.47946671 
    1600   -290334.69         1400   0.14344575    0.1373769   0.11978162   0.40060427   0.17498583   0.15381932    0.1521975   0.48100264 
    1610   -290286.76         1400   0.14424162   0.13738753   0.12027256   0.40190171   0.17666084   0.15366682   0.15213801   0.48246567 
    1620   -290234.62         1400   0.14505132   0.13731705   0.12019239   0.40256075   0.17825714   0.15356672   0.15202359   0.48384746 
    1630    -290187.9         1400   0.14587287    0.1371629   0.12063186   0.40366763   0.17975672   0.15353386   0.15185553   0.48514611 
    1640   -290142.86         1400   0.14670646   0.13692565   0.12067075   0.40430287   0.18114014   0.15358256   0.15163877   0.48636147 
    1650    -290106.3         1400   0.14755072    0.1366098   0.12080851   0.40496902   0.18239883   0.15371437   0.15138243   0.48749563 
    1660   -290077.97         1400   0.14840422   0.13622077   0.12089547   0.40552046   0.18353757   0.15392489   0.15108808   0.48855054 
    1670   -290051.47         1400   0.14926512   0.13576475    0.1206823   0.40571216   0.18455921   0.15421195   0.15075809   0.48952926 
    1680    -290021.6         1400    0.1501241   0.13524456    0.1207807   0.40614935   0.18549032   0.15456033   0.15039759   0.49044823 
    1690   -289997.58         1400   0.15096956   0.13465556   0.12043902   0.40606414    0.1863727   0.15493224   0.15001848   0.49132342 
    1700   -289995.85    1399.8074   0.15179462   0.13400215   0.12057611   0.40637288   0.18722802   0.15530963   0.14963818   0.49217584 
    1710   -290012.53         1400   0.15259075   0.13329326   0.12075747   0.40664148   0.18806076    0.1556798   0.14928968   0.49303025 
    1720   -290020.77         1400   0.15335117   0.13253889   0.12041559   0.40630566   0.18887776   0.15602759   0.14899546   0.49390081 
    1730   -290030.31         1400    0.1540727   0.13175503   0.12069437   0.40652209   0.18966766   0.15634975   0.14877452   0.49479192 
    1740   -290051.16         1400   0.15476059   0.13095164    0.1204411   0.40615332   0.19042424   0.15663141   0.14864091   0.49569657 
    1750   -290078.77         1400   0.15541868   0.13013977    0.1208156   0.40637406   0.19113913   0.15686277   0.14860508   0.49660699 
    1760   -290109.06         1400   0.15603932   0.12933634    0.1208148   0.40619046   0.19179059   0.15703934    0.1486594   0.49748934 
    1770   -290149.27         1400    0.1566156   0.12855412   0.12124204   0.40641177   0.19237169   0.15714885   0.14879653   0.49831707 
    1780   -290195.17         1400   0.15714145    0.1278023   0.12150436   0.40644811    0.1928871   0.15718072   0.14900331   0.49907113 
    1790   -290243.83         1400   0.15761226   0.12708553   0.12199088   0.40668867   0.19334243   0.15713105   0.14926958   0.49974307 
    1800   -290283.99         1400   0.15802874   0.12640148   0.12245597   0.40688619   0.19374136    0.1569997   0.14960147   0.50034253 
    1810   -290306.05         1400   0.15839467   0.12574429   0.12302867   0.40716763   0.19408939   0.15677217   0.15000868   0.50087024 
    1820   -290310.76    1400.5515   0.15871681   0.12510458   0.12370742   0.40752881   0.19440249   0.15641836   0.15049161   0.50131246 
    1830   -290303.31    1399.5418   0.15899896   0.12448446   0.12440607    0.4078895   0.19467539   0.15592174   0.15102785   0.50162497 
    1840   -290292.14         1400   0.15923954   0.12389658   0.12518816   0.40832427   0.19487947   0.15531401   0.15159241   0.50178589 
    1850   -290291.44    1399.8682   0.15944517   0.12334401   0.12598948   0.40877866   0.19500318   0.15462666   0.15216879   0.50179863 
    1860   -290281.98         1400   0.15963076   0.12282343   0.12667605   0.40913024   0.19505936   0.15387819   0.15273507   0.50167263 
    1870    -290269.4         1400   0.15980251   0.12232933   0.12753477    0.4096666   0.19505977   0.15308497   0.15327697   0.50142171 
    1880   -290259.05         1400    0.1599627   0.12186088    0.1281289   0.40995249   0.19501617   0.15225351   0.15378588   0.50105556 
    1890   -290234.44         1400   0.16011606   0.12142151   0.12902615   0.41056372    0.1949376   0.15139202   0.15425499   0.50058461 
    1900    -290198.2         1400   0.16026572   0.12100974   0.12965482   0.41093027   0.19483792   0.15052134   0.15468475   0.50004401 
    1910   -290158.03         1400   0.16041419   0.12062041   0.13055991    0.4115945   0.19473229   0.14966879   0.15508456   0.49948564 
    1920    -290135.4         1400   0.16056749   0.12025266   0.13138843   0.41220858   0.19463137   0.14885553    0.1554637   0.49895059 
    1930   -290130.52    1399.3603    0.1607304   0.11990951   0.13229874   0.41293865   0.19454075   0.14809209   0.15583499   0.49846782 
    1940    -290132.2    1399.5642   0.16090328   0.11959073   0.13320579    0.4136998   0.19446182   0.14738793   0.15622623   0.49807598 
    1950   -290124.32         1400   0.16108427   0.11929287   0.13410484   0.41448198   0.19439115   0.14674466   0.15666557   0.49780138 
    1960   -290120.31    1399.4472   0.16127381   0.11900961   0.13500848    0.4152919   0.19431967   0.14614991   0.15715973   0.49762932 
    1970    -290124.8    1400.0143   0.16147549   0.11873504   0.13588959   0.41610011   0.19422965    0.1455836   0.15769227   0.49750551 
    1980   -290128.15    1400.4425   0.16169374   0.11846687   0.13679066   0.41695127   0.19411501   0.14501795   0.15824616   0.49737912 
    1990   -290121.15    1399.5371   0.16193192   0.11820725   0.13762714   0.41776631   0.19396694   0.14443631   0.15881915   0.49722239 
    2000   -290116.93         1400   0.16219094   0.11796177   0.13852263   0.41867534   0.19377039   0.14383196    0.1594078   0.49701015 
    2010   -290118.76    1400.2797   0.16246767   0.11773814   0.13936143   0.41956725   0.19351189   0.14320071   0.15999741      0.49671 
    2020   -290135.88         1400   0.16275852   0.11755448   0.14022768   0.42054068   0.19316542   0.14254919   0.16056958   0.49628418 
    2030    -290163.7         1400   0.16305617   0.11742178   0.14097003   0.42144798    0.1927196   0.14188604   0.16110449   0.49571012 
    2040   -290176.53         1400   0.16335295   0.11733158   0.14173597   0.42242049   0.19217496   0.14123699   0.16159125   0.49500321 
    2050   -290170.75    1399.2805   0.16364529   0.11727635   0.14233568   0.42325732   0.19151226   0.14060496   0.16203696   0.49415418 
    2060   -290160.75         1400   0.16392216    0.1172556   0.14296517   0.42414293   0.19073223    0.1399823    0.1624463   0.49316083 
    2070   -290157.73     1399.608    0.1641696   0.11726969   0.14333453   0.42477382   0.18984998   0.13936876   0.16281597   0.49203471 
    2080   -290156.57    1399.4832   0.16437701   0.11731849   0.14381643   0.42551192   0.18890264    0.1387844   0.16314986    0.4908369 
    2090    -290147.6         1400   0.16454318   0.11740263   0.14383977   0.42578559    0.1879397   0.13826051   0.16346051   0.48966073 
    2100   -290134.74         1400   0.16467084   0.11752617   0.14420916   0.42640616   0.18700688   0.13780901   0.16377052   0.48858642 
    2110   -290130.53    1399.4511   0.16475364    0.1176957   0.14392924   0.42637858   0.18615573   0.13742557   0.16410275   0.48768406 
    2120   -290142.42         1400   0.16478566   0.11791936   0.14419945   0.42690446   0.18541464   0.13711307   0.16447303   0.48700074 
    2130   -290155.23         1400   0.16476413   0.11820174   0.14369771   0.42666358   0.18480202    0.1368579   0.16488886   0.48654878 
    2140   -290170.51         1400   0.16469416   0.11853073   0.14392595   0.42715084   0.18433804   0.13664984   0.16535861   0.48634649 
    2150   -290178.35         1400   0.16458367   0.11889746   0.14340533   0.42688646   0.18402527   0.13649531   0.16589529   0.48641588 
    2160   -290176.74    1399.7934   0.16444105   0.11929912   0.14363798   0.42737815   0.18386477   0.13640311   0.16650077   0.48676865 
    2170   -290158.98         1400    0.1642753   0.11972816   0.14393695   0.42794041    0.1838534   0.13637584   0.16716856    0.4873978 
    2180   -290142.94         1400   0.16409417   0.12017852   0.14419199   0.42846468   0.18397994   0.13641872   0.16788816   0.48828682 
    2190    -290143.9    1400.1253   0.16390426   0.12064754    0.1445766    0.4291284   0.18423678   0.13654672   0.16864561   0.48942911 
    2200   -290150.43    1400.9781    0.1637064   0.12113691   0.14485845   0.42970176   0.18462011    0.1367726   0.16942824   0.49082095 
    2210   -290163.08         1400   0.16349863   0.12165347   0.14537084   0.43052294   0.18509881   0.13707893   0.17021851   0.49239626 
    2220   -290177.42         1400   0.16328048   0.12220123   0.14565915   0.43114086   0.18562159   0.13744076     0.170989   0.49405134 
    2230   -290193.13         1400   0.16305233   0.12278115   0.14595297   0.43178645    0.1861325   0.13783931   0.17172676   0.49569857 
    2240   -290200.86     1400.986    0.1628187   0.12338857   0.14694454    0.4331518   0.18659486   0.13826382   0.17245184   0.49731053 
    2250   -290202.22         1400    0.1625887     0.124018   0.14722104   0.43382775    0.1869948    0.1387089   0.17316703   0.49887072 
    2260   -290209.51    1400.9732   0.16237742   0.12466985   0.14789469   0.43494197   0.18732003    0.1391713   0.17385978   0.50035111 
    2270   -290235.05         1400   0.16220106    0.1253495   0.14811617   0.43566673   0.18756651   0.13964532   0.17451918   0.50173102 
    2280   -290262.36         1400   0.16207129   0.12605009   0.14842325   0.43654463   0.18775902   0.14013011   0.17514164   0.50303077 
    2290   -290284.63         1400   0.16199341   0.12676227   0.14857849   0.43733417   0.18792551   0.14062523   0.17572809   0.50427883 
    2300   -290294.62         1400   0.16196355   0.12747879   0.14849353   0.43793587   0.18807963   0.14112263   0.17627389   0.50547614 
    2310   -290294.48    1399.9612   0.16197655    0.1282074   0.14858511   0.43876906   0.18822907   0.14161777   0.17677565   0.50662249 
    2320   -290298.36    1400.4456   0.16202782   0.12896768   0.14812454   0.43912004   0.18837176   0.14211986   0.17724245   0.50773407 
    2330   -290296.48    1400.2244    0.1621168   0.12976492   0.14815042   0.44003213   0.18848799   0.14263578   0.17767571   0.50879948 
    2340   -290299.98    1400.6687   0.16224457   0.13059727   0.14741927    0.4402611   0.18856861     0.143164   0.17807291   0.50980553 
    2350   -290299.69    1400.6092   0.16240918   0.13146105    0.1473723   0.44124254   0.18862863   0.14369837    0.1784297    0.5107567 
    2360   -290301.89    1400.8812   0.16260561   0.13235026   0.14647642   0.44143229   0.18869055   0.14423581   0.17872779   0.51165415 
    2370   -290302.31    1400.9243   0.16282621   0.13325859   0.14637246   0.44245726   0.18877267   0.14476601   0.17895753   0.51249621 
    2380   -290304.18         1400   0.16306339   0.13417648   0.14560177   0.44284164   0.18889368   0.14527815    0.1791173   0.51328914 
    2390   -290309.38    1400.6474   0.16331056   0.13509119    0.1454808   0.44388255   0.18907045   0.14576281   0.17921136   0.51404461 
    2400   -290319.48         1400   0.16356008   0.13600114   0.14506934   0.44463055   0.18930615   0.14622029   0.17925311   0.51477955 
    2410   -290341.84         1400   0.16380433   0.13690655   0.14495607   0.44566695   0.18959547   0.14665502    0.1792589   0.51550938 
    2420   -290361.41         1400   0.16404016     0.137802   0.14452092   0.44636309   0.18993433   0.14708137     0.179241   0.51625671 
    2430      -290383         1400   0.16426045   0.13868324    0.1444298   0.44737349   0.19031954   0.14752704   0.17920876   0.51705534 
    2440    -290405.1         1400   0.16445153   0.13955061   0.14406356   0.44806571   0.19073631   0.14799353    0.1791687   0.51789855 
    2450   -290426.41         1400   0.16460237   0.14040083   0.14401034   0.44901353   0.19119027   0.14847579   0.17913456   0.51880062 
    2460    -290441.4         1400   0.16470845   0.14123199   0.14370755   0.44964799   0.19169165    0.1489668   0.17912002   0.51977847 
    2470   -290440.48    1399.9276   0.16476812   0.14204016   0.14368474   0.45049301   0.19222051   0.14946377   0.17912897   0.52081325 
    2480   -290423.84         1400   0.16477886   0.14282129   0.14348484   0.45108499   0.19272854   0.14996327   0.17915771   0.52184952 
    2490   -290408.67         1400   0.16473711   0.14356851   0.14339093   0.45169656   0.19317847   0.15045608   0.17920416    0.5228387 
    2500   -290400.71    1399.0176   0.16464221   0.14427491   0.14342432   0.45234143   0.19354442   0.15093932   0.17926728   0.52375102 
    2510    -290395.9         1400   0.16450175   0.14493843   0.14347021    0.4529104   0.19379817   0.15141069   0.17934017   0.52454903 
    2520   -290395.12    1399.9284   0.16433471   0.14556148   0.14358548   0.45348168   0.19392979   0.15186614    0.1794173   0.52521324 
    2530   -290386.47         1400   0.16414922   0.14614482   0.14383695   0.45413099   0.19394374   0.15230234   0.17949872    0.5257448 
    2540   -290364.52         1400   0.16394551   0.14667727   0.14405378   0.45467656   0.19385083   0.15272426   0.17959156   0.52616666 
    2550   -290338.66         1400   0.16372357   0.14715219   0.14432295   0.45519871   0.19365275   0.15314404   0.17968949   0.52648629 
    2560   -290315.74         1400   0.16348165   0.14757531   0.14477895   0.45583591   0.19334396   0.15357097   0.17977718   0.52669211 
    2570   -290309.38     1399.187   0.16321197   0.14795181   0.14516076   0.45632454   0.19292799   0.15399987   0.17983557   0.52676344 
    2580   -290318.72    1400.4433   0.16290856    0.1482839   0.14570873    0.4569012   0.19242536   0.15442153   0.17984653   0.52669342 
    2590   -290340.99         1400   0.16258167   0.14857132   0.14621749   0.45737049   0.19185872   0.15482381   0.17980321   0.52648575 
    2600   -290368.21         1400   0.16223787    0.1488182   0.14685659   0.45791267   0.19122137   0.15520332   0.17969967   0.52612436 
    2610   -290389.84         1400   0.16188407   0.14902972   0.14749104   0.45840483   0.19051262   0.15556062    0.1795368   0.52561004 
    2620   -290411.89         1400   0.16152919    0.1492049   0.14819296   0.45892706    0.1897642   0.15588805   0.17932636   0.52497861 
    2630      -290421         1400   0.16117461    0.1493511   0.14892141   0.45944712   0.18899916   0.15616135    0.1790857   0.52424621 
    2640   -290421.09    1400.0124   0.16081608    0.1494819   0.14962715   0.45992513   0.18823139   0.15636859   0.17882782   0.52342781 
    2650   -290405.83         1400   0.16045021   0.14960562   0.15039469   0.46045053   0.18747225   0.15652079   0.17856832   0.52256136 
    2660   -290379.09         1400   0.16008573   0.14973177   0.15117808   0.46099558   0.18673642   0.15662677    0.1783175   0.52168069 
    2670    -290343.1         1400   0.15972735   0.14987173   0.15185775   0.46145683   0.18603851   0.15667672   0.17808428   0.52079951 
    2680    -290304.2         1400    0.1593729   0.15003028   0.15267384   0.46207702   0.18538944   0.15666465   0.17787058   0.51992466 
    2690    -290264.2         1400   0.15902459   0.15020451   0.15333531    0.4625644   0.18479792   0.15659084   0.17767574    0.5190645 
    2700   -290221.94         1400   0.15869276   0.15039302     0.154158   0.46324377   0.18426859   0.15644672   0.17751147   0.51822678 
    2710   -290169.18         1400   0.15838987   0.15060521   0.15485995   0.46385504   0.18379236   0.15624553    0.1773779   0.51741579 
    2720   -290118.17         1400   0.15812164   0.15085198   0.15563854   0.46461216   0.18335472   0.15602041   0.17726248   0.51663762 
    2730   -290076.92         1400   0.15788615   0.15112205   0.15634682   0.46535502   0.18296131   0.15577758   0.17716586   0.51590476 
    2740   -290045.33         1400   0.15767463   0.15140037   0.15704633   0.46612133   0.18262214    0.1555233   0.17709483   0.51524027 
    2750   -290007.34         1400   0.15747893   0.15167272   0.15772048   0.46687214   0.18235058   0.15528415   0.17706008    0.5146948 
    2760   -289980.55         1400   0.15729325   0.15193124   0.15831168   0.46753617   0.18216069   0.15509699   0.17705988   0.51431756 
    2770   -289969.99         1400   0.15712191   0.15216963   0.15885252   0.46814406   0.18205249    0.1549831   0.17709908   0.51413468 
    2780   -289978.53         1400   0.15696915     0.152382   0.15933111   0.46868226   0.18201812   0.15495305   0.17718365   0.51415482 
    2790   -289989.83         1400   0.15683469    0.1525705   0.15975309   0.46915828   0.18204459   0.15500961   0.17730391   0.51435811 
    2800   -289998.21         1400   0.15671805   0.15274479   0.16058635   0.47004919   0.18212154    0.1551476   0.17744433   0.51471347 
    2810   -290006.35         1400   0.15662207   0.15291439   0.16091345   0.47044991   0.18223287   0.15535617   0.17758908   0.51517812 
    2820   -290007.26     1400.142   0.15655552    0.1530957   0.16159346   0.47124468   0.18235842   0.15562296   0.17771428   0.51569566 
    2830   -290022.57         1400   0.15651571    0.1532994   0.16184343   0.47165854    0.1824903   0.15593839   0.17781058   0.51623926 
    2840   -290053.52         1400   0.15649344   0.15352214   0.16217194   0.47218753   0.18263772   0.15630143   0.17788268   0.51682183 
    2850   -290098.71         1400   0.15648554   0.15376452   0.16234135   0.47259141    0.1828208   0.15672409   0.17794709   0.51749198 
    2860   -290134.34         1400     0.156493   0.15403103   0.16222958   0.47275361   0.18304488   0.15720687   0.17803125     0.518283 
    2870   -290173.66         1400   0.15652152   0.15432348    0.1623288   0.47317379   0.18331167    0.1577204   0.17814833    0.5191804 
    2880   -290226.39         1400   0.15657048   0.15463809   0.16168173   0.47289029   0.18362415   0.15823306    0.1783105   0.52016772 
    2890   -290269.78         1400   0.15663685   0.15497354   0.16173232   0.47334271   0.18398828   0.15872999   0.17852183    0.5212401 
    2900   -290314.74         1400   0.15672211   0.15532886   0.16065505   0.47270602   0.18441026   0.15919453   0.17878257   0.52238736 
    2910   -290352.28         1400   0.15683012   0.15569647   0.16064954   0.47317613   0.18489646   0.15961383   0.17910738   0.52361767 
    2920   -290393.63         1400   0.15695948   0.15606067   0.15991401   0.47293416   0.18545493    0.1599945   0.17949953   0.52494895 
    2930   -290430.88         1400   0.15711276   0.15641475   0.15984804   0.47337555   0.18609468   0.16035086   0.17995197   0.52639752 
    2940    -290458.4         1400   0.15728677   0.15676108   0.15975788   0.47380572   0.18683814   0.16069363   0.18043309   0.52796486 
    2950   -290469.98         1400   0.15747444   0.15710215   0.15964043   0.47421702   0.18770185   0.16104534   0.18090336   0.52965056 
    2960   -290475.91    1400.7847   0.15767255   0.15744477   0.15951933   0.47463666   0.18868234   0.16143574    0.1813323   0.53145038 
    2970   -290486.59         1400   0.15788155   0.15779404   0.15974716   0.47542275   0.18976851   0.16185596   0.18168853     0.533313 
    2980   -290500.81         1400   0.15809759   0.15815117   0.15964116   0.47588992   0.19094608   0.16229986   0.18195265    0.5351986 
    2990   -290494.51    1399.2281   0.15830595   0.15850842   0.15983058   0.47664494   0.19220257   0.16277256    0.1821172   0.53709233 
    3000   -290466.34         1400    0.1584926   0.15885522   0.15979155   0.47713936   0.19352023   0.16327284   0.18218035   0.53897343 
    3010   -290425.28         1400   0.15865258   0.15918212   0.15998247   0.47781717   0.19489134   0.16379641   0.18214878   0.54083653 
    3020   -290388.98         1400   0.15878298   0.15948409   0.16013718   0.47840424   0.19630887    0.1643409   0.18202126   0.54267103 
    3030    -290353.4         1400   0.15888524   0.15975809   0.16020624   0.47884957     0.197758   0.16490464   0.18179255   0.54445519 
    3040   -290322.29         1400   0.15896866   0.16000162   0.16066564   0.47963592    0.1992099   0.16548909   0.18147486   0.54617385 
    3050   -290291.29         1400   0.15903962   0.16021507    0.1608046   0.48005929   0.20063368   0.16609199   0.18109344   0.54781912 
    3060   -290258.97         1400   0.15909303    0.1604058   0.16155221   0.48105104   0.20202664   0.16668357   0.18063824   0.54934846 
    3070    -290237.9         1400   0.15913881   0.16058786   0.16174995   0.48147661    0.2033621   0.16723883   0.18009768    0.5506986 
    3080   -290220.99         1400    0.1591801   0.16077346   0.16248018   0.48243375   0.20458995   0.16774419   0.17947151   0.55180565 
    3090   -290187.26         1400   0.15922348   0.16096145   0.16274464   0.48292956   0.20564571   0.16819759   0.17879048   0.55263378 
    3100   -290135.07         1400   0.15926993   0.16114703   0.16341369   0.48383064   0.20649557   0.16862394   0.17806828   0.55318779 
    3110   -290102.07         1400   0.15932038   0.16133733   0.16373549    0.4843932   0.20709805   0.16904674   0.17730408   0.55344888 
    3120    -290087.4         1400   0.15937271    0.1615285   0.16429489    0.4851961   0.20745622   0.16947149   0.17652099    0.5534487 
    3130   -290080.33     1399.057   0.15942285   0.16170999   0.16466623   0.48579908   0.20758705   0.16989931   0.17575115   0.55323751 
    3140   -290075.32         1400   0.15946814   0.16187628   0.16510617   0.48645059   0.20751698   0.17033104   0.17500644   0.55285446 
    3150   -290075.72    1400.0697   0.15950057   0.16202472   0.16552058   0.48704587   0.20726318   0.17076188   0.17430638   0.55233144 
    3160    -290071.8    1399.5576   0.15951816   0.16215707   0.16580109   0.48747633   0.20684087   0.17118193   0.17365762   0.55168042 
    3170   -290058.91         1400   0.15952897   0.16227866   0.16621694   0.48802457   0.20627514   0.17158034   0.17305121   0.55090669 
    3180   -290044.74         1400   0.15953671   0.16239437   0.16628979   0.48822086    0.2055957   0.17195204   0.17247471   0.55002244 
    3190   -290055.37         1400   0.15955068    0.1625076    0.1666574   0.48871567   0.20481914   0.17230105   0.17190778   0.54902798 
    3200   -290089.81         1400    0.1595863   0.16261634   0.16651097   0.48871362   0.20396673   0.17262939   0.17133866   0.54793478 
    3210   -290120.46         1400   0.15965722   0.16271471   0.16679747    0.4891694   0.20306416   0.17291611   0.17076255   0.54674282 
    3220   -290154.33         1400   0.15977761   0.16279983   0.16652206    0.4890995   0.20211637   0.17315187   0.17017275   0.54544099 
    3230   -290202.13         1400   0.15995816   0.16287207   0.16672577   0.48955599   0.20113158   0.17334067   0.16956158   0.54403383 
    3240    -290251.4         1400   0.16020544    0.1629318   0.16688886   0.49002611   0.20012396   0.17348504   0.16893053   0.54253953 
    3250   -290288.86         1400   0.16051748   0.16297867   0.16651543   0.49001158   0.19910744   0.17358074   0.16829339   0.54098157 
    3260   -290306.83         1400   0.16088679   0.16301548   0.16660255   0.49050483   0.19808803   0.17362682     0.167668   0.53938284 
    3270   -290294.55         1400   0.16131244   0.16304977    0.1662134   0.49057562   0.19706493   0.17362999   0.16706859   0.53776351 
    3280   -290269.88         1400   0.16179317   0.16308844   0.16619415   0.49107577   0.19603333   0.17359441   0.16650144   0.53612918 
    3290   -290256.18         1400   0.16232544   0.16313411   0.16579079   0.49125034   0.19498251   0.17351703    0.1659694   0.53446894 
    3300   -290242.38         1400   0.16290152   0.16319233   0.16564477   0.49173862    0.1938976    0.1733917   0.16547337   0.53276268 
    3310   -290227.15         1400   0.16351042   0.16327026   0.16536059   0.49214127   0.19277616   0.17321222   0.16501192    0.5310003 
    3320   -290214.18         1400   0.16414238   0.16336744   0.16507565   0.49258546   0.19162013   0.17297852   0.16458429   0.52918293 
    3330   -290188.95         1400   0.16478247   0.16348652   0.16496394   0.49323294   0.19043036   0.17270307   0.16419926   0.52733269 
    3340   -290156.82         1400    0.1654317   0.16362946    0.1645734   0.49363457   0.18920657   0.17239693   0.16386848   0.52547197 
    3350   -290123.45         1400   0.16609624   0.16379761   0.16462104   0.49451489    0.1879544   0.17205231   0.16361041   0.52361712 
    3360   -290090.89         1400   0.16677591   0.16399152   0.16412185   0.49488928   0.18668481    0.1716557   0.16344784   0.52178834 
    3370   -290066.47         1400   0.16746208   0.16420434   0.16401657   0.49568299   0.18541321   0.17119709   0.16340145   0.52001175 
    3380   -290052.53         1400   0.16814318   0.16442789   0.16342128   0.49599235    0.1841725   0.17067102    0.1634894   0.51833292 
    3390   -290061.58         1400   0.16882468   0.16465812   0.16313757   0.49662037   0.18298587   0.17007393   0.16373003   0.51678982 
    3400   -290090.34         1400   0.16950967   0.16488999   0.16246448   0.49686415   0.18185854   0.16941754   0.16413726   0.51541334 
    3410   -290135.07         1400   0.17017574   0.16512072   0.16206438   0.49736083    0.1807859   0.16872012   0.16472273   0.51422874 
    3420   -290183.02         1400   0.17080179   0.16535231   0.16137097   0.49752507   0.17977645   0.16800078   0.16549458   0.51327181 
    3430   -290233.55         1400   0.17138662   0.16558869   0.16088281   0.49785812   0.17884688   0.16728355   0.16644009   0.51257053 
    3440   -290277.27         1400   0.17193022   0.16583126   0.16020004   0.49796152   0.17801999   0.16659804   0.16752392   0.51214194 
    3450   -290323.73         1400   0.17243184   0.16608094   0.15972825   0.49824104    0.1773235   0.16596891   0.16871264   0.51200505 
    3460   -290369.78         1400    0.1728869   0.16632714   0.15908006   0.49829409    0.1767852   0.16540785   0.16998306    0.5121761 
    3470   -290409.27         1400   0.17327556   0.16654276   0.15882556   0.49864388   0.17642686   0.16492431   0.17131706   0.51266822 
    3480   -290436.17         1400   0.17358843   0.16671976   0.15824604   0.49855423   0.17625304   0.16452547   0.17268965   0.51346816 
    3490    -290453.2         1400   0.17383104   0.16685858   0.15822225   0.49891186   0.17623725   0.16419931   0.17407285   0.51450941 
    3500   -290471.27         1400   0.17400881   0.16696355   0.15769282   0.49866519   0.17635585   0.16393393   0.17545347   0.51574325 
    3510   -290490.49         1400   0.17412973   0.16703736   0.15778983   0.49895692   0.17660011   0.16372721   0.17682477   0.51715209 
    3520   -290491.94    1400.2605   0.17420983   0.16708112   0.15733615    0.4986271   0.17697309   0.16358792   0.17816535   0.51872635 
    3530   -290473.53         1400    0.1742591   0.16709675   0.15735414   0.49870999   0.17748156   0.16353405   0.17945002   0.52046563 
    3540   -290440.42         1400   0.17427927   0.16707907   0.15697734   0.49833568   0.17812892   0.16356885   0.18064017   0.52233794 
    3550   -290402.55         1400   0.17428675   0.16702043   0.15689045   0.49819763   0.17891577   0.16367815   0.18170075   0.52429467 
    3560   -290377.71         1400   0.17429717   0.16691946   0.15660353   0.49782016   0.17984837   0.16385455   0.18260631   0.52630923 
    3570   -290368.14         1400   0.17431373   0.16677642   0.15643509   0.49752524   0.18092598   0.16409403   0.18333123   0.52835124 
    3580   -290351.14         1400   0.17434122   0.16659511   0.15626567     0.497202   0.18212937   0.16439717   0.18385169   0.53037823 
    3590   -290324.11         1400   0.17438153   0.16638134   0.15615127   0.49691414   0.18344375   0.16477191   0.18414553   0.53236119 
    3600   -290294.17         1400   0.17443294   0.16614695   0.15593127   0.49651116   0.18486254   0.16522689   0.18420339   0.53429282 
    3610   -290259.27         1400   0.17449273   0.16590014   0.15594984   0.49634271   0.18635483   0.16575932   0.18403396    0.5361481 
    3620   -290217.24         1400    0.1745552   0.16565262   0.15563413   0.49584196   0.18786295   0.16634595   0.18366428   0.53787318 
    3630   -290162.17         1400   0.17461546   0.16540487   0.15577463   0.49579496   0.18934605   0.16696039   0.18311913   0.53942556 
    3640   -290086.74         1400   0.17466642    0.1651546   0.15538116   0.49520218   0.19078588   0.16759626   0.18241745   0.54079959 
    3650   -290019.92         1400    0.1746981   0.16490072   0.15564149   0.49524031   0.19217658   0.16825662   0.18155994   0.54199314 
    3660   -289972.11         1400   0.17470933   0.16464261   0.15521423   0.49456617   0.19352306   0.16894027   0.18055475   0.54301808 
    3670   -289938.25         1400   0.17470134   0.16437928   0.15560589   0.49468651   0.19481323    0.1696388   0.17942187    0.5438739 
    3680   -289914.63         1400   0.17467977   0.16411113   0.15606116   0.49485206   0.19602102   0.17033343   0.17818378   0.54453823 
    3690   -289919.57    1400.5958   0.17465126   0.16383827   0.15575206   0.49424159   0.19713113   0.17100606   0.17686465   0.54500184 
    3700   -289950.37         1400   0.17461593   0.16356351   0.15631488   0.49449432   0.19815654   0.17164742   0.17548883   0.54529279 
    3710   -289981.13         1400   0.17458129   0.16329238   0.15628125   0.49415492   0.19912036   0.17223254   0.17408521   0.54543811 
    3720   -290009.52         1400   0.17455799   0.16302803    0.1569705   0.49455652   0.20001141   0.17273475   0.17268092   0.54542708 
    3730   -290052.73         1400   0.17454684   0.16277906   0.15760871   0.49493461   0.20081164   0.17315516   0.17130092   0.54526772 
    3740    -290078.3         1400   0.17454171   0.16255504   0.15838503   0.49548178   0.20151799   0.17351276   0.16996704    0.5449978 
    3750   -290084.13    1400.7698   0.17453927   0.16234627   0.15903405   0.49591959   0.20213646   0.17380895   0.16870792   0.54465332 
    3760   -290096.46         1400   0.17453766   0.16214213   0.15980398   0.49648377   0.20268299   0.17402706   0.16755063   0.54426068 
    3770   -290103.15    1400.8793   0.17452823   0.16193927   0.16038856   0.49685606   0.20319001   0.17416814   0.16651419   0.54387234 
    3780   -290088.72         1400   0.17449528    0.1617394   0.16106897   0.49730365   0.20369272   0.17424899   0.16560528     0.543547 
    3790   -290069.07         1400   0.17443506   0.16154326    0.1615406   0.49751892    0.2042257   0.17429619    0.1648218   0.54334369 
    3800   -290056.15         1400   0.17435239   0.16134755   0.16207977   0.49777972   0.20482451   0.17432599   0.16416561   0.54331611 
    3810   -290044.83         1400   0.17425158   0.16114761   0.16239163   0.49779082     0.205523     0.174337   0.16364244   0.54350245 
    3820   -290023.82         1400   0.17413802   0.16094171   0.16262035   0.49770009   0.20632553   0.17432385   0.16323626   0.54388563 
    3830   -290013.52         1400   0.17401555   0.16074032   0.16293373    0.4976896    0.2072282   0.17428325   0.16292857   0.54444002 
    3840   -290002.56         1400   0.17388771   0.16056163   0.16303473   0.49748407   0.20820886   0.17422407   0.16271531   0.54514824 
    3850   -289982.89         1400   0.17376321   0.16040186   0.16325346   0.49741852   0.20923392    0.1741553   0.16258832   0.54597754 
    3860   -289953.55         1400   0.17365275   0.16024002   0.16354932   0.49744209   0.21026185   0.17407438    0.1625433   0.54687953 
    3870   -289907.96         1400   0.17356005   0.16006375   0.16370021   0.49732401   0.21124342   0.17396816   0.16257637   0.54778796 
    3880   -289858.39         1400   0.17348492   0.15987324   0.16420552   0.49756368   0.21215501   0.17382224   0.16267141   0.54864865 
    3890   -289820.11         1400   0.17342613   0.15967036   0.16433502   0.49743151   0.21300183   0.17362715   0.16281006   0.54943904 
    3900   -289795.12         1400   0.17337801   0.15944926   0.16482367   0.49765094   0.21375939    0.1733677   0.16297632   0.55010341 
    3910   -289786.15         1400   0.17333737   0.15920129   0.16493042   0.49746908   0.21440041   0.17301647   0.16315361    0.5505705 
    3920   -289792.29    1400.8373   0.17330613   0.15892159   0.16502201   0.49724973   0.21492152   0.17256285   0.16332194    0.5508063 
    3930   -289813.14         1400    0.1732826   0.15860915   0.16547577   0.49736752   0.21532098   0.17202076   0.16347205   0.55081379 
    3940   -289841.81         1400   0.17326859    0.1582701   0.16554317   0.49708186   0.21556547   0.17143083   0.16360663   0.55060293 
    3950   -289861.87         1400   0.17326718    0.1579169   0.16609347   0.49727754   0.21562621   0.17084272   0.16372823   0.55019716 
    3960   -289875.38         1400    0.1732781    0.1575578   0.16616088   0.49699678   0.21549146   0.17029348   0.16384091   0.54962585 
    3970   -289886.48         1400   0.17330022   0.15719165   0.16699949   0.49749135   0.21518055   0.16981852   0.16394693     0.548946 
    3980   -289898.68         1400   0.17333733   0.15682093   0.16708518   0.49724345   0.21472237   0.16946139   0.16404283   0.54822659 
    3990   -289908.72         1400    0.1733989    0.1564561   0.16789943   0.49775443   0.21414869   0.16926532    0.1641225   0.54753651 
    4000   -289913.78    1400.6426   0.17348653   0.15610345   0.16800975   0.49759973   0.21352242   0.16924005   0.16417908   0.54694156 
    4010   -289923.25         1400   0.17359443    0.1557652   0.16877891   0.49813853   0.21289393   0.16938352   0.16420654     0.546484 
    4020    -289936.7         1400   0.17371617   0.15543847   0.16893297   0.49808762   0.21227682   0.16970458   0.16418914   0.54617053 
    4030   -289958.54         1400   0.17384283   0.15512781   0.16971493   0.49868557   0.21167874    0.1702014   0.16411923   0.54599937 
    4040   -289973.19         1400   0.17396063   0.15483679   0.16992453   0.49872195   0.21110325   0.17085936   0.16401231   0.54597492 
    4050   -289979.11    1400.7997   0.17405739   0.15456251   0.17070722   0.49932711   0.21055795   0.17166352   0.16388351   0.54610498 
    4060   -289975.13    1400.3365   0.17413685   0.15430406   0.17095132   0.49939222   0.21005567   0.17259556   0.16373238   0.54638361 
    4070   -289990.39         1400   0.17420571   0.15406171   0.17161596   0.49988337   0.20960763   0.17362374   0.16356189   0.54679327 
    4080   -290010.61         1400   0.17426549   0.15383794   0.17184903   0.49995246   0.20922787   0.17472213   0.16336767   0.54731768 
    4090   -290034.35         1400   0.17432359   0.15363106    0.1723803   0.50033495   0.20892589   0.17587205   0.16314275   0.54794069 
    4100   -290074.02         1400   0.17439927    0.1534364   0.17257283   0.50040851   0.20871123   0.17706074   0.16289453   0.54866649 
    4110    -290128.1         1400   0.17450361   0.15325314   0.17274752   0.50050427   0.20859076   0.17827645   0.16264582   0.54951303 
    4120   -290184.04         1400   0.17464099    0.1530825   0.17319713   0.50092062   0.20857178   0.17950866   0.16241986    0.5505003 
    4130   -290242.23         1400   0.17481608   0.15292411   0.17334728   0.50108747    0.2086615   0.18074184   0.16224547   0.55164881 
    4140   -290290.79         1400   0.17503564   0.15278017   0.17375833   0.50157413   0.20884659   0.18196711   0.16216559   0.55297928 
    4150   -290332.02         1400   0.17530552   0.15265529   0.17389203   0.50185285   0.20907267   0.18317619   0.16221261   0.55446147 
    4160   -290357.28         1400   0.17562449   0.15256546    0.1742525   0.50244245   0.20930846   0.18435704   0.16240059   0.55606608 
    4170    -290379.9         1400   0.17598398   0.15252334   0.17435815   0.50286547   0.20951966      0.18549   0.16273882   0.55774848 
    4180   -290416.57         1400   0.17637266   0.15253111   0.17459481   0.50349858   0.20968431   0.18655865    0.1632253   0.55946826 
    4190    -290450.5         1400   0.17677956   0.15258607   0.17473925   0.50410488   0.20980486   0.18754941    0.1638533   0.56120757 
    4200   -290475.03         1400   0.17721178   0.15267799   0.17477732    0.5046671    0.2099279   0.18844545   0.16461765   0.56299101 
    4210   -290486.36         1400   0.17766571   0.15279686   0.17486454    0.5053271   0.21008256   0.18921114   0.16550746   0.56480116 
    4220   -290493.08    1400.8553   0.17813388   0.15293473   0.17488867   0.50595729   0.21025235   0.18980661   0.16651039   0.56656935 
    4230   -290493.69    1400.9161   0.17861519   0.15308192   0.17494168    0.5066388   0.21043718   0.19022034   0.16760612   0.56826365 
    4240   -290487.63    1400.1121     0.179103   0.15323181   0.17498673   0.50732154   0.21063242   0.19045179   0.16876664   0.56985085 
    4250   -290469.15         1400   0.17959171   0.15338806   0.17494443    0.5079242   0.21081088   0.19050625   0.16996092   0.57127805 
    4260   -290447.86         1400   0.18007987   0.15354374   0.17476111   0.50838471   0.21095779   0.19038252   0.17116091   0.57250121 
    4270   -290420.76         1400   0.18056042   0.15368333   0.17480906    0.5090528   0.21108337   0.19008016   0.17233163   0.57349517 
    4280   -290378.14         1400   0.18102442   0.15379726   0.17449122    0.5093129   0.21120371   0.18961062   0.17343699   0.57425133 
    4290   -290333.52         1400   0.18147342   0.15389145   0.17451694   0.50988181   0.21132971   0.18898265   0.17445895   0.57477132 
    4300   -290273.33         1400   0.18190815   0.15397357   0.17416346   0.51004518   0.21148194   0.18818891   0.17538319   0.57505404 
    4310   -290214.86         1400   0.18233215   0.15404669   0.17418243   0.51056127   0.21168041   0.18722365    0.1762008   0.57510486 
    4320   -290182.48         1400   0.18274484   0.15410883   0.17380973   0.51066339   0.21193156   0.18608093   0.17690523   0.57491772 
    4330   -290151.52         1400    0.1831432   0.15415628   0.17386865   0.51116813   0.21223137    0.1847462   0.17750189   0.57447946 
    4340   -290119.87         1400   0.18352139   0.15419653   0.17357604   0.51129396   0.21257537   0.18321647   0.17799838   0.57379023 
    4350   -290097.88         1400   0.18387817   0.15423264   0.17369431   0.51180512   0.21296246   0.18152364   0.17839303   0.57287913 
    4360   -290078.63         1400   0.18420645   0.15426411   0.17384405    0.5123146   0.21340763    0.1797042    0.1786878   0.57179963 
    4370   -290066.96         1400   0.18450802   0.15428404   0.17366933    0.5124614   0.21392915   0.17779285   0.17888617   0.57060818 
    4380   -290063.03    1399.5137   0.18477663   0.15428858   0.17391448    0.5129797   0.21450922   0.17583108   0.17898483   0.56932513 
    4390   -290061.44    1399.2805   0.18501014   0.15426938   0.17386114   0.51314066   0.21511419   0.17385265   0.17899096   0.56795781 
    4400   -290060.75    1399.1895   0.18521204   0.15421675   0.17417634   0.51360512   0.21570254   0.17187603   0.17891152   0.56649009 
    4410   -290058.22         1400   0.18538507   0.15412403   0.17419853   0.51370763   0.21625294   0.16993416   0.17875432   0.56494143 
    4420   -290049.18         1400   0.18553426   0.15397812   0.17455765   0.51407003   0.21674466   0.16805192   0.17852982    0.5633264 
    4430    -290040.3         1400   0.18566088   0.15377759   0.17468563   0.51412411   0.21716699    0.1662473   0.17824875   0.56166303 
    4440      -290042    1400.2048   0.18576876   0.15352982   0.17508931   0.51438788   0.21750727   0.16454209   0.17792074    0.5599701 
    4450   -290044.54    1400.5249   0.18586254   0.15323911   0.17531452   0.51441617   0.21774119   0.16295554   0.17757002   0.55826675 
    4460    -290052.5         1400   0.18594269   0.15291851   0.17576481   0.51462601   0.21783267   0.16150715   0.17723138    0.5565712 
    4470   -290072.74         1400   0.18600974   0.15258216   0.17630924   0.51490114   0.21776548   0.16023031   0.17692076   0.55491655 
    4480   -290094.01         1400   0.18606698   0.15224123   0.17679949    0.5151077   0.21753489   0.15915319   0.17664688   0.55333495 
    4490   -290111.15         1400   0.18611595   0.15190609     0.177584   0.51560604   0.21713593   0.15829798   0.17641404   0.55184795 
    4500   -290114.67    1400.3842   0.18615799    0.1515831   0.17812974   0.51587084   0.21655522   0.15766982   0.17621432   0.55043937 
    4510   -290115.56    1400.4483    0.1861959   0.15127515   0.17869794   0.51616899   0.21577158   0.15723107   0.17603225    0.5490349 
    4520   -290116.64    1400.5569   0.18623254   0.15098357   0.17953444   0.51675055   0.21479302   0.15694542   0.17586291   0.54760136 
    4530      -290125         1400   0.18627267   0.15070896   0.18010131   0.51708295   0.21365046   0.15678861   0.17571048   0.54614955 
    4540   -290131.98    1400.9285   0.18631566   0.15044724    0.1808946    0.5176575   0.21239318   0.15674686   0.17557627   0.54471631 
    4550   -290146.53         1400   0.18635874    0.1501939   0.18144638   0.51799903   0.21106527   0.15680169   0.17547188   0.54333884 
    4560   -290146.74    1400.0121    0.1864052   0.14995342   0.18218809    0.5185467   0.20969981   0.15692618    0.1754259   0.54205189 
    4570   -290137.86         1400   0.18645516   0.14973592    0.1827361   0.51892718   0.20832691   0.15710468   0.17546577   0.54089736 
    4580   -290130.67    1399.0728   0.18650836   0.14955389    0.1833901   0.51945235   0.20697131   0.15732831   0.17561505   0.53991467 
    4590   -290122.57         1400   0.18656385   0.14940342    0.1839387   0.51990597   0.20565575   0.15758751   0.17589079   0.53913405 
    4600   -290109.15         1400   0.18661945   0.14928054   0.18453616   0.52043614   0.20439182   0.15788644   0.17629846   0.53857672 
    4610   -290107.57    1399.7935   0.18667761   0.14918962   0.18509795   0.52096518   0.20319825    0.1582253   0.17683633   0.53825987 
    4620   -290115.33    1400.8429   0.18673815   0.14912808   0.18565896   0.52152519   0.20210249   0.15859982   0.17749297   0.53819528 
    4630   -290131.91         1400   0.18679482    0.1490856   0.18617372   0.52205414   0.20112956   0.15899863   0.17825574   0.53838393 
    4640   -290155.44         1400   0.18684095   0.14905646   0.18671003   0.52260744   0.20029987   0.15941099   0.17911478   0.53882564 
    4650   -290171.52         1400   0.18687377   0.14903669   0.18709933   0.52300978   0.19964007   0.15982416   0.18007218   0.53953641 
    4660   -290196.95         1400   0.18689205   0.14902645   0.18760442   0.52352293   0.19917897    0.1602272   0.18113961   0.54054578 
    4670   -290229.37         1400   0.18688797   0.14902602   0.18789507   0.52380906   0.19893915   0.16062531   0.18231371   0.54187817 
    4680   -290239.69         1400   0.18685463   0.14903566   0.18837655   0.52426684   0.19893728   0.16102917   0.18358503   0.54355148 
    4690   -290226.75         1400   0.18678786   0.14905574   0.18858582   0.52442942   0.19918495   0.16144106   0.18493744   0.54556346 
    4700   -290210.66         1400   0.18668376   0.14908634   0.18871652   0.52448662   0.19968694   0.16186346   0.18634876   0.54789916 
    4710   -290187.53         1400   0.18654008   0.14913818   0.18915415   0.52483241   0.20044609    0.1623038    0.1877903   0.55054019 
    4720   -290159.82         1400   0.18635624   0.14922899   0.18997738   0.52556261   0.20145797    0.1627777   0.18922149   0.55345716 
    4730   -290142.11         1400   0.18612489   0.14936223   0.19039352   0.52588064   0.20270671   0.16331527   0.19059615   0.55661813 
    4740   -290124.39         1400   0.18583869   0.14953743   0.19152495   0.52690108   0.20416241   0.16392169   0.19188794   0.55997204 
    4750    -290094.8         1400   0.18549744   0.14975475   0.19194204   0.52719424   0.20579039   0.16456813   0.19308808    0.5634466 
    4760   -290066.61         1400   0.18510298   0.15001088   0.19235978   0.52747365   0.20755858   0.16524405   0.19419147    0.5669941 
    4770   -290047.14         1400   0.18465809   0.15029671   0.19334381   0.52829861   0.20942866   0.16594674   0.19520258   0.57057797 
    4780    -290034.8         1400   0.18416904   0.15060178    0.1937547   0.52852552   0.21135926   0.16667903   0.19611295   0.57415124 
    4790   -290027.39    1399.0613   0.18364403   0.15092364   0.19454549   0.52911316    0.2133156   0.16746276   0.19690577   0.57768413 
    4800   -290010.88         1400    0.1830898   0.15125782   0.19491331   0.52926094   0.21525452   0.16832842   0.19757698   0.58115992 
    4810   -289980.45         1400   0.18251287   0.15158918   0.19541336   0.52951541   0.21712731   0.16926921    0.1981382   0.58453472 
    4820   -289947.11         1400   0.18192522   0.15190927   0.19573169   0.52956617    0.2188954   0.17028545   0.19858997   0.58777082 
    4830   -289919.51         1400   0.18133918   0.15222457   0.19594181   0.52950556   0.22053016   0.17137267   0.19893886   0.59084168 
    4840   -289886.52         1400   0.18076391   0.15254686   0.19622022   0.52953099    0.2220179   0.17251518   0.19920372   0.59373681 
    4850   -289836.57         1400   0.18020729   0.15288604   0.19613762   0.52923095   0.22335268   0.17369061   0.19939856   0.59644185 
    4860    -289779.2         1400   0.17967558   0.15324204    0.1963722   0.52928982   0.22452861   0.17485244   0.19954561   0.59892667 
    4870   -289740.67         1400   0.17917657   0.15361271   0.19693781   0.52972709   0.22553581   0.17595689   0.19967263   0.60116533 
    4880   -289723.04         1400   0.17872073   0.15400075   0.19714508   0.52986656   0.22636319   0.17698157   0.19980412   0.60314888 
    4890   -289714.99         1400   0.17831518   0.15440102    0.1978766   0.53059279   0.22700997   0.17790545   0.19993992   0.60485534 
    4900   -289723.44         1400   0.17795752   0.15481606   0.19805138   0.53082495   0.22748102   0.17871009   0.20005639    0.6062475 
    4910   -289733.44         1400   0.17764783   0.15524056   0.19880103   0.53168942   0.22777741   0.17937682   0.20013901   0.60729323 
    4920    -289747.6         1400   0.17738742   0.15566974   0.19892828   0.53198544   0.22791268   0.17989533   0.20018799     0.607996 
    4930   -289775.22         1400   0.17717628   0.15609739   0.19903757   0.53231124   0.22789549   0.18026414   0.20019267   0.60835231 
    4940   -289805.01         1400   0.17701379    0.1565221   0.19962722   0.53316311   0.22770991   0.18050975   0.20012649   0.60834615 
    4950   -289835.65         1400   0.17690052   0.15695767   0.19972059   0.53357878   0.22734762   0.18066815   0.19995545   0.60797122 
    4960   -289865.73         1400   0.17683664   0.15741421   0.20001411   0.53426497   0.22681073   0.18075353   0.19967039   0.60723464 
    4970   -289904.89         1400   0.17682366   0.15789773   0.20008283   0.53480422   0.22608562   0.18079311   0.19928995   0.60616869 
    4980    -289949.4         1400   0.17686614   0.15841133   0.20014084   0.53541831   0.22515921   0.18080389   0.19885132   0.60481442 
    4990   -289990.86         1400   0.17697027   0.15894794   0.20018201   0.53610023   0.22402991   0.18080305   0.19838353   0.60321649 
    5000   -290025.29         1400    0.1771405   0.15949955    0.2000266   0.53666665   0.22271021   0.18081056   0.19790464   0.60142541 
    5010   -290053.86         1400   0.17737441   0.16006148    0.2000207    0.5374566   0.22122096   0.18084071   0.19743686   0.59949854 
    5020   -290072.25         1400   0.17766678   0.16062217   0.19970827   0.53799723   0.21961076   0.18087892   0.19704029   0.59752997 
    5030   -290072.42    1399.9893   0.17801202   0.16117096   0.19966532   0.53884829   0.21792995   0.18090363   0.19678943   0.59562302 
    5040   -290063.12         1400   0.17839907   0.16170074   0.19933611   0.53943591   0.21621469     0.180895   0.19673868   0.59384837 
    5050   -290046.63         1400   0.17881234   0.16220719    0.1992521   0.54027163   0.21447458   0.18083742     0.196927     0.592239 
    5060   -290031.09         1400    0.1792319   0.16269513   0.19895955   0.54088658   0.21270375   0.18071959   0.19737935   0.59080269 
    5070   -290021.05         1400   0.17963739   0.16317186   0.19885819   0.54166744   0.21091165   0.18053088   0.19810226   0.58954479 
    5080   -289991.32         1400   0.18001954   0.16363271   0.19891556   0.54256781   0.20913335   0.18025662   0.19907645   0.58846642 
    5090   -289960.16         1400   0.18037205   0.16407524   0.19880141    0.5432487   0.20739664   0.17990359   0.20027715   0.58757739 
    5100   -289943.87         1400   0.18068865   0.16449516   0.19854141   0.54372522   0.20573185   0.17948211    0.2016952   0.58690915 
    5110   -289931.29         1400   0.18096265   0.16488758   0.19839267    0.5442429    0.2041866   0.17898796   0.20332827   0.58650282 
    5120   -289926.91    1399.3609   0.18119082   0.16525197   0.19775341   0.54419621   0.20277148   0.17843341   0.20515304   0.58635794 
    5130   -289921.29         1400   0.18137033   0.16558629   0.19754749   0.54450412   0.20149557   0.17782715   0.20713713   0.58645986 
    5140   -289906.08         1400   0.18149304    0.1658934   0.19730313   0.54468957   0.20037327   0.17718153   0.20923414   0.58678894 
    5150   -289882.69         1400   0.18154758   0.16618058   0.19640544    0.5441336   0.19943127   0.17651456   0.21138135   0.58732718 
    5160   -289862.46         1400   0.18152307   0.16646086   0.19610664   0.54409057   0.19869378   0.17582979   0.21351152   0.58803509 
    5170   -289854.02         1400    0.1814196   0.16674668   0.19581526   0.54398155   0.19816411   0.17512477   0.21557201    0.5888609 
    5180   -289856.04    1400.2189   0.18124022   0.16703441   0.19624999   0.54452462   0.19785385   0.17437876   0.21754649    0.5897791 
    5190   -289867.66         1400   0.18098861   0.16731662    0.1960017   0.54430693   0.19775854   0.17357909   0.21943355   0.59077118 
    5200   -289879.56         1400   0.18067379    0.1675932   0.19638508   0.54465207   0.19784888   0.17274247   0.22121857   0.59180992 
    5210    -289879.6    1400.0321   0.18030644   0.16786671   0.19623204   0.54440519   0.19810883   0.17188222   0.22289792   0.59288898 
    5220   -289877.09    1399.8115   0.17988806   0.16814132   0.19660148   0.54463086   0.19850256   0.17102266    0.2244816   0.59400682 
    5230    -289867.5         1400   0.17941371    0.1684209   0.19655904   0.54439365   0.19897256   0.17021007   0.22599957    0.5951822 
    5240    -289867.9    1400.0788   0.17887251   0.16870839   0.19654961   0.54413052   0.19946074   0.16949969   0.22749236   0.59645279 
    5250   -289879.12         1400   0.17826504   0.16901447   0.19683776   0.54411728   0.19989576   0.16892985   0.22896748   0.59779309 
    5260   -289892.03         1400   0.17760226   0.16934307   0.19690353   0.54384886   0.20022881   0.16850168   0.23045753   0.59918802 
    5270   -289911.87         1400   0.17690037   0.16969984   0.19717393   0.54377414   0.20040907   0.16821003   0.23198586   0.60060496 
    5280   -289935.35         1400   0.17616803   0.17008678   0.19735237   0.54360718   0.20037926   0.16805842   0.23353517   0.60197284 
    5290   -289945.42         1400   0.17540633   0.17050682    0.1975903   0.54350346   0.20013212   0.16804849   0.23506424   0.60324486 
    5300   -289958.95         1400   0.17463075   0.17097299    0.1978784   0.54348214   0.19968836   0.16816604   0.23651982   0.60437422 
    5310   -289970.26         1400    0.1738514    0.1714871   0.19801546   0.54335395   0.19905141   0.16839528   0.23785669   0.60530339 
    5320   -289982.05         1400   0.17307392   0.17204279   0.19843613   0.54355284   0.19821222   0.16872891   0.23902743   0.60596856 
    5330   -290003.96         1400   0.17229773   0.17264005   0.19847134   0.54340912    0.1971837   0.16916104   0.23998028   0.60632502 
    5340   -290014.51         1400   0.17151923   0.17326776   0.19901591    0.5438029   0.19602473   0.16967194   0.24069621   0.60639288 
    5350   -290023.14         1400   0.17074246   0.17390311   0.19947308   0.54411865   0.19483327   0.17023781   0.24118816   0.60625925 
    5360    -290030.5    1400.9542   0.16997237   0.17453989   0.20013447   0.54464673   0.19366354   0.17084291   0.24144705    0.6059535 
    5370   -290030.04    1400.9012   0.16919837    0.1751741   0.20046406   0.54483654   0.19255837   0.17146451    0.2414606   0.60548348 
    5380   -290030.53    1400.9566   0.16841818    0.1758031   0.20121297   0.54543425   0.19154777    0.1720677   0.24121364   0.60482911 
    5390   -290040.47         1400   0.16763971   0.17642542   0.20146343   0.54552855   0.19065653   0.17262874   0.24069327   0.60397854 
    5400   -290060.15         1400    0.1668725   0.17704303   0.20228811   0.54620364   0.18990006   0.17313802   0.23989645   0.60293454 
    5410   -290074.25         1400   0.16612596   0.17765488    0.2025828   0.54636364   0.18929343    0.1735857   0.23882925   0.60170838 
    5420   -290076.07    1400.2165   0.16540897   0.17825132   0.20347297   0.54713326   0.18886575    0.1739537   0.23750155     0.600321 
    5430    -290069.9    1399.4166   0.16473158   0.17882609   0.20439486   0.54795254   0.18864407   0.17423921   0.23593517   0.59881844 
    5440   -290060.95         1400   0.16410051   0.17937829   0.20487201   0.54835081   0.18863459    0.1744423   0.23416891    0.5972458 
    5450   -290044.26         1400   0.16351934   0.17991914   0.20579697   0.54923546   0.18883038   0.17455031   0.23222402   0.59560472 
    5460   -290031.56         1400   0.16298969   0.18046459   0.20645193    0.5499062   0.18921297   0.17456628   0.23012671   0.59390596 
    5470   -290027.84    1399.5794   0.16251535   0.18102567   0.20733252   0.55087354   0.18974081   0.17451261   0.22791095   0.59216437 
[...]
  248670   -292059.73         1400    3.8278224    4.2748329    3.1636646     11.26632    4.3003094    5.3194092    3.9736992    13.593418 
  248680   -292041.25         1400    3.8294238     4.278973    3.1623824    11.270779    4.2994497    5.3148193    3.9699955    13.584265 
  248690   -292029.49         1400    3.8309079    4.2831902    3.1611739    11.275272    4.2988966    5.3106817     3.966437    13.576015 
  248700   -292023.48    1399.2558    3.8323017    4.2874687    3.1601466    11.279917    4.2986579    5.3071187    3.9630441    13.568821 
  248710   -292018.75         1400    3.8336221    4.2917934    3.1592767    11.284692    4.2987283    5.3042686    3.9598849    13.562882 
  248720   -292009.87         1400    3.8348859    4.2961508    3.1586046    11.289641    4.2991032    5.3021821    3.9569704    13.558256 
  248730   -291996.07         1400    3.8361061    4.3005105    3.1581006    11.294717    4.2997686    5.3008675    3.9542944    13.554931 
  248740   -291980.75         1400    3.8372955     4.304833    3.1578184    11.299947    4.3007203    5.3003174    3.9518339    13.552872 
  248750   -291956.36         1400     3.838481    4.3090789    3.1576555    11.305215    4.3019537    5.3005044    3.9495481    13.552006 
  248760   -291931.08         1400    3.8396667    4.3132528    3.1576541    11.310574    4.3034272    5.3013637    3.9474025    13.552193 
  248770   -291909.37         1400    3.8408111    4.3173416    3.1578754    11.316028     4.305084    5.3027887    3.9453296    13.553202 
  248780   -291888.28         1400    3.8418864     4.321327    3.1582112    11.321425    4.3068944    5.3046477    3.9432233    13.554765 
  248790   -291867.73         1400    3.8428829    4.3252028    3.1587555    11.326841    4.3088319    5.3068275    3.9410033    13.556663 
  248800   -291843.79         1400    3.8437828    4.3289654    3.1594641    11.332212    4.3108313     5.309311    3.9386422    13.558785 
  248810   -291813.03         1400     3.844611    4.3325781    3.1607209     11.33791    4.3128741    5.3120588    3.9362014    13.561134 
  248820    -291780.8         1400    3.8454039    4.3360123    3.1618182    11.343234    4.3150094    5.3149435    3.9337298    13.563683 
  248830   -291759.14         1400    3.8461718     4.339253    3.1639401    11.349365    4.3172492    5.3178521    3.9312346    13.566336 
  248840   -291742.21         1400    3.8469234    4.3422777     3.165389     11.35459    4.3195081    5.3207407    3.9288186    13.569067 
  248850   -291735.09    1399.0759     3.847681    4.3450757    3.1679897    11.360746    4.3217534    5.3236026    3.9265259    13.571882 
  248860   -291736.42    1399.2632     3.848466    4.3476601    3.1696496    11.365776    4.3239947     5.326465    3.9243249    13.574785 
  248870   -291747.25    1400.6936    3.8492949    4.3500367    3.1723155    11.371647    4.3262847    5.3293645    3.9222139    13.577863 
  248880   -291763.97         1400    3.8501898    4.3521829    3.1740889    11.376462    4.3287181    5.3323599    3.9202607    13.581339 
  248890   -291787.94         1400    3.8511722    4.3540623    3.1765583    11.381793    4.3313824    5.3354998    3.9184945    13.585377 
  248900   -291814.66         1400    3.8522363    4.3556463    3.1784391    11.386322    4.3343095    5.3387876    3.9169138    13.590011 
  248910   -291837.93         1400    3.8533642    4.3568958    3.1806533    11.390913    4.3374086    5.3421642    3.9155407    13.595114 
  248920   -291860.49         1400    3.8545479    4.3577587     3.182572    11.394879    4.3405874    5.3455262    3.9144175    13.600531 
  248930   -291875.61         1400    3.8557796    4.3582069     3.184475    11.398462    4.3437886      5.34883    3.9135819      13.6062 
  248940   -291888.05         1400    3.8570561     4.358223    3.1863087    11.401588    4.3469572    5.3520492    3.9130592    13.612066 
  248950   -291895.48    1400.9733     3.858361    4.3578065    3.1881315    11.404299    4.3500296    5.3551047    3.9128924    13.618027 
  248960   -291888.12    1400.0337    3.8596626    4.3569856    3.1897307    11.406379    4.3529022    5.3578809    3.9131457    13.623929 
  248970   -291878.06         1400    3.8609373     4.355783    3.1913625    11.408083    4.3554929      5.36028    3.9138764    13.629649 
  248980   -291858.78         1400    3.8621578    4.3542515    3.1933902    11.409799    4.3578192    5.3622656    3.9151224    13.635207 
  248990   -291838.05         1400    3.8633003    4.3524471    3.1948262    11.410574    4.3598489    5.3638508    3.9168828    13.640582 
  249000   -291822.29         1400    3.8643505    4.3504019    3.1963391    11.411091     4.361484    5.3650546    3.9191292    13.645668 
  249010   -291809.67         1400    3.8653254    4.3481391    3.1976179    11.411082    4.3627464    5.3658577    3.9218545    13.650459 
  249020   -291797.49         1400    3.8662898    4.3456585    3.1986742    11.410622    4.3637249    5.3662158    3.9249981    13.654939 
  249030   -291792.06    1399.2291    3.8672585    4.3429845    3.1998185    11.410061    4.3644279    5.3661937    3.9284795    13.659101 
  249040   -291785.92         1400    3.8681968    4.3401564    3.2003451    11.408698    4.3648516    5.3658464    3.9322064    13.662904 
  249050   -291778.64    1399.0607    3.8690693    4.3371991    3.2013461    11.407615    4.3649971    5.3652079    3.9360905    13.666295 
  249060   -291763.72         1400    3.8698682    4.3341364    3.2022909    11.406296    4.3648657    5.3643326    3.9400434    13.669242 
  249070   -291747.63         1400    3.8706058     4.330991    3.2022276    11.403824    4.3644604    5.3632764    3.9439774    13.671714 
  249080   -291735.57         1400     3.871288    4.3277976    3.2030653    11.402151    4.3638156    5.3621061    3.9478099    13.673732 
  249090   -291725.16         1400    3.8719146    4.3245902    3.2039705    11.400475    4.3629962    5.3609235    3.9514689    13.675389 
  249100   -291716.89         1400    3.8724611    4.3214211    3.2047067    11.398589     4.362055    5.3598606    3.9549149     13.67683 
  249110   -291708.25         1400    3.8729321     4.318324    3.2053121    11.396568    4.3610721    5.3589916    3.9581055    13.678169 
  249120   -291699.17         1400    3.8733374    4.3153261    3.2059071    11.394571    4.3601257    5.3583664     3.961018     13.67951 
  249130   -291689.21         1400    3.8736759    4.3124748    3.2059843    11.392135    4.3592928    5.3579944    3.9636274    13.680915 
  249140    -291678.9         1400    3.8739507    4.3098158    3.2064336      11.3902     4.358641    5.3578312    3.9659044    13.682377 
  249150   -291672.23    1399.1067    3.8741838    4.3073745    3.2064045    11.387963     4.358216    5.3578375    3.9678488    13.683902 
  249160   -291666.85         1400    3.8744055    4.3051726    3.2067583    11.386336    4.3580309    5.3579818    3.9694755    13.685488 
  249170   -291664.02    1399.6471    3.8746481    4.3032393    3.2072609    11.385148    4.3580536    5.3582227    3.9707994    13.687076 
  249180   -291665.06    1399.7789     3.874946    4.3016003    3.2076141     11.38416    4.3582216    5.3585176    3.9718267    13.688566 
  249190   -291662.49    1399.4404    3.8753182    4.3002486    3.2078556    11.383422    4.3584721    5.3588404    3.9725455    13.689858 
  249200    -291658.2         1400    3.8757497    4.2991368    3.2083129    11.383199    4.3587828    5.3591263    3.9729848    13.690894 
  249210   -291656.46    1399.7798    3.8762456     4.298225    3.2088596     11.38333     4.359132     5.359304    3.9731567    13.691593 
  249220   -291662.29    1400.5741    3.8768258    4.2974735    3.2093903     11.38369    4.3595086    5.3592929    3.9730452    13.691847 
  249230    -291672.3         1400    3.8774835    4.2967951    3.2101614     11.38444    4.3598743    5.3590417    3.9726326    13.691549 
  249240   -291692.61         1400     3.878207    4.2961314    3.2111823    11.385521     4.360139    5.3585281    3.9719043    13.690571 
  249250   -291724.24         1400    3.8789991    4.2954844    3.2122224    11.386706    4.3602098    5.3577315    3.9708271    13.688768 
  249260   -291762.08         1400    3.8798748    4.2948661    3.2133191     11.38806    4.3600272    5.3566101    3.9693659    13.686003 
  249270   -291795.58         1400    3.8808352    4.2942863    3.2146433    11.389765    4.3595742    5.3551365    3.9675523    13.682263 
  249280   -291823.72         1400    3.8818605    4.2937738    3.2164787    11.392113    4.3588853    5.3533323    3.9654614    13.677679 
  249290   -291853.81         1400    3.8829216    4.2933531    3.2180908    11.394366    4.3580177    5.3512128    3.9631705    13.672401 
  249300   -291881.68         1400    3.8839962    4.2930321    3.2202698    11.397298    4.3570432    5.3487794    3.9607577     13.66658 
  249310   -291908.65         1400    3.8850789    4.2928266    3.2221198    11.400025     4.356028    5.3460337    3.9582901    13.660352 
  249320   -291929.32         1400    3.8861886    4.2927595    3.2240788    11.403027    4.3550672    5.3430125    3.9557927    13.653872 
  249330   -291942.28         1400    3.8873043    4.2928436    3.2262621     11.40641    4.3542498    5.3397816     3.953315    13.647346 
  249340   -291946.05    1400.4315    3.8883666      4.29309    3.2283588    11.409815    4.3536645    5.3363916    3.9509444    13.641001 
  249350   -291940.22    1399.6516    3.8893507    4.2935277    3.2303618     11.41324    4.3534543    5.3328848    3.9487255    13.635065 
  249360    -291930.1         1400     3.890273      4.29418     3.232657     11.41711    4.3537286    5.3292974    3.9466854    13.629711 
  249370   -291919.05         1400    3.8911807    4.2950535    3.2345538    11.420788    4.3545818    5.3257112    3.9449081    13.625201 
  249380   -291899.81         1400    3.8920905    4.2961209    3.2370623    11.425274    4.3560849    5.3221481    3.9434732    13.621706 
  249390   -291879.77         1400    3.8929824    4.2973412    3.2388243    11.429148    4.3583161    5.3186876    3.9423866     13.61939 
  249400   -291858.12         1400    3.8938455    4.2986616    3.2414835    11.433991    4.3613139    5.3153853    3.9416693    13.618368 
  249410    -291828.5         1400    3.8946954    4.3000161     3.243155    11.437866    4.3650503    5.3122628    3.9413337    13.618647 
  249420   -291801.17         1400    3.8955364    4.3013655    3.2458959    11.442798    4.3694427    5.3093864    3.9413732    13.620202 
  249430   -291782.21         1400    3.8963698     4.302687    3.2478969    11.446954    4.3743695    5.3068322    3.9417609    13.622963 
  249440   -291770.56         1400    3.8971973     4.303962     3.250607    11.451766    4.3797002    5.3046706    3.9424637    13.626834 
  249450   -291758.27         1400    3.8980122    4.3051847    3.2532584    11.456455    4.3853144    5.3029858    3.9434515    13.631752 
  249460   -291745.26         1400    3.8988043    4.3063713    3.2551497    11.460325    4.3910528    5.3018536    3.9446811    13.637588 
  249470   -291734.42         1400    3.8995774     4.307537     3.257682    11.464796    4.3967691     5.301299    3.9461301    13.644198 
  249480   -291726.23         1400    3.9003473    4.3086817    3.2598763    11.468905    4.4024393    5.3012744    3.9478252    13.651539 
  249490   -291716.34         1400    3.9010987    4.3098034    3.2622692    11.473171    4.4080779    5.3017434    3.9497756    13.659597 
  249500   -291704.75         1400    3.9017776    4.3108901     3.264505    11.477173    4.4137238    5.3026716    3.9519554    13.668351 
  249510   -291689.86         1400    3.9023777    4.3119556     3.266646    11.480979    4.4193846     5.304019      3.95443    13.677834 
  249520   -291662.99         1400    3.9029153     4.312995    3.2685454    11.484456    4.4250674    5.3057431    3.9572418    13.688052 
  249530   -291630.75         1400    3.9034051    4.3139875    3.2704795    11.487872    4.4308332    5.3077873    3.9604164    13.699037 
  249540   -291598.64         1400    3.9038615    4.3149247    3.2723667    11.491153    4.4367375     5.310135    3.9639357    13.710808 
  249550   -291569.28         1400    3.9043009    4.3158151    3.2740251    11.494141    4.4428119     5.312815    3.9676811    13.723308 
  249560   -291545.24         1400    3.9047335    4.3166637    3.2758519    11.497249    4.4490634    5.3158423    3.9715406    13.736446 
  249570      -291522         1400    3.9051717    4.3174873    3.2774185    11.500077    4.4554848    5.3192489    3.9754146    13.750148 
  249580   -291504.42         1400    3.9056386    4.3183044    3.2791931    11.503136    4.4620238    5.3230613    3.9791995    13.764285 
  249590   -291493.03         1400    3.9061557    4.3191307    3.2806995    11.505986    4.4685394      5.32722    3.9827915    13.778551 
  249600   -291494.75    1400.2392    3.9067293    4.3199885    3.2824409    11.509159    4.4749234    5.3315982    3.9861228    13.792644 
  249610   -291506.47         1400    3.9073502    4.3208986    3.2839927    11.512241    4.4810906    5.3360891    3.9891602     13.80634 
  249620   -291517.96         1400    3.9080118    4.3218824    3.2856653     11.51556     4.486932    5.3406204     3.991915    13.819467 
  249630   -291538.04         1400    3.9087571    4.3229692    3.2872534     11.51898     4.492291    5.3451362    3.9944613    13.831888 
  249640   -291574.49         1400    3.9096012    4.3241456    3.2889622    11.522709    4.4971677    5.3495503    3.9968473    13.843565 
  249650   -291624.64         1400    3.9105462    4.3253993     3.290378    11.526324     4.501558    5.3537494    3.9991262    13.854434 
  249660   -291677.53         1400    3.9115971    4.3267077     3.291833    11.530138    4.5054013     5.357653    4.0013202    13.864375 
  249670   -291726.62         1400     3.912739     4.328044    3.2931484    11.533931    4.5086853    5.3612179     4.003464    13.873367 
  249680   -291775.28         1400    3.9139887    4.3294147    3.2944606    11.537864    4.5113832    5.3644372    4.0055738    13.881394 
  249690   -291817.12         1400    3.9153562    4.3308169    3.2958536    11.542027    4.5134712    5.3673088    4.0076231    13.888403 
  249700   -291845.36         1400    3.9168153    4.3322295    3.2972082    11.546253    4.5149618    5.3698214    4.0095833    13.894366 
  249710    -291869.5         1400    3.9183416    4.3336313    3.2987745    11.550747    4.5159115    5.3719469    4.0114601    13.899319 
  249720   -291887.49         1400    3.9199225    4.3349829    3.3003259    11.555231    4.5163578    5.3736443    4.0132982      13.9033 
  249730   -291907.34         1400    3.9215575    4.3362538    3.3020347    11.559846    4.5163079    5.3748949    4.0151358    13.906339 
  249740   -291924.02         1400    3.9232451    4.3374417    3.3038019    11.564489    4.5157973    5.3757138    4.0169559    13.908467 
  249750   -291935.89         1400    3.9249794    4.3385492    3.3055949    11.569123    4.5148729    5.3761195    4.0187145    13.909707 
  249760   -291946.76         1400     3.926765    4.3395889     3.307412    11.573766     4.513558     5.376126    4.0203424    13.910026 
  249770   -291950.27     1400.437     3.928585    4.3405845    3.3095817    11.578751    4.5118747    5.3757265    4.0218061    13.909407 
  249780   -291947.68    1400.0924    3.9304298    4.3415889    3.3113831    11.583402    4.5098255    5.3749319    4.0230957    13.907853 
  249790   -291949.58      1400.37    3.9323053    4.3426352     3.313593    11.588533    4.5073998    5.3738164    4.0241765    13.905393 
  249800   -291947.05    1400.0301    3.9342029     4.343703    3.3153659    11.593272    4.5045608    5.3724328    4.0249541    13.901948 
  249810   -291943.35    1399.5696    3.9360921    4.3447628    3.3174887    11.598344     4.501284    5.3707113     4.025321    13.897316 
  249820   -291943.51     1399.605    3.9379584    4.3457924    3.3192881    11.603039    4.4975544    5.3686314    4.0251781    13.891364 
  249830   -291950.36     1400.539    3.9397907    4.3467682    3.3212997    11.607859    4.4933865    5.3662027    4.0244675    13.884057 
  249840   -291961.44         1400    3.9415736    4.3476598    3.3230943    11.612328    4.4888085    5.3634605    4.0231766    13.875445 
  249850   -291970.17         1400    3.9432933    4.3484337    3.3248589    11.616586    4.4838522    5.3604718    4.0213103    13.865634 
  249860   -291979.33         1400    3.9449586    4.3490765    3.3266068    11.620642    4.4785381    5.3572735    4.0188902    13.854702 
  249870   -291994.52         1400    3.9465777    4.3495863    3.3282893    11.624453    4.4729293    5.3539165    4.0159918    13.842838 
  249880   -292018.23         1400    3.9481488     4.349974    3.3297398    11.627863    4.4671198    5.3505118     4.012697    13.830329 
  249890   -292042.55         1400    3.9496433    4.3502498    3.3312882    11.631181    4.4611634    5.3471596    4.0090568     13.81738 
  249900   -292067.03         1400    3.9510257    4.3504265    3.3323524    11.633805    4.4550508    5.3439779    4.0050637    13.804092 
  249910   -292093.65         1400    3.9522884     4.350527    3.3336727    11.636488    4.4487674    5.3411006    4.0006565    13.790524 
  249920   -292122.05         1400    3.9534046    4.3505588    3.3348832    11.638847    4.4423405    5.3385998    3.9957927    13.776733 
  249930   -292152.54         1400    3.9543416    4.3505194     3.335789     11.64065     4.435844    5.3365488    3.9904642    13.762857 
  249940   -292177.98         1400    3.9550803    4.3504348    3.3367516    11.642267    4.4293225    5.3349814    3.9846902    13.748994 
  249950   -292195.24         1400    3.9556084    4.3503432    3.3375857    11.643537    4.4227966    5.3339203    3.9784707    13.735188 
  249960   -292198.34    1400.3644     3.955916    4.3502572    3.3382184    11.644392    4.4163413    5.3334573    3.9718086    13.721607 
  249970   -292183.33         1400    3.9560081    4.3501727    3.3387845    11.644965    4.4100764    5.3335897    3.9646857    13.708352 
  249980   -292164.96         1400    3.9558622    4.3500814    3.3390567       11.645    4.4041961     5.334265    3.9571286     13.69559 
  249990   -292146.43         1400    3.9554842    4.3499893    3.3391908    11.644664    4.3987266     5.335442    3.9491988    13.683367 
  250000   -292127.15         1400    3.9549071    4.3498978    3.3390917    11.643897    4.3937005    5.3370916    3.9410067    13.671799 
Loop time of 10919.7 on 32 procs for 250000 steps with 2577 atoms

Performance: 0.396 ns/day, 60.665 hours/ns, 22.894 timesteps/s
100.0% CPU use with 32 MPI tasks x no OpenMP threads

MPI task timing breakdown:
Section |  min time  |  avg time  |  max time  |%varavg| %total
---------------------------------------------------------------
Pair    | 5072.6     | 7161.7     | 9539.2     |1694.1 | 65.58
Neigh   | 65.235     | 98.775     | 130.35     | 271.6 |  0.90
Comm    | 80.57      | 2178.4     | 3945.6     |2529.9 | 19.95
Output  | 46.157     | 46.2       | 46.262     |   0.5 |  0.42
Modify  | 1091.7     | 1161.4     | 1299.7     | 223.1 | 10.64
Other   |            | 273.2      |            |       |  2.50

Nlocal:    80.5312 ave 94 max 63 min
Histogram: 2 1 4 3 2 4 6 2 3 5
Nghost:    1846.53 ave 2287 max 1335 min
Histogram: 8 4 4 0 0 0 0 0 2 14
Neighs:    24827.4 ave 34631 max 15698 min
Histogram: 1 4 3 4 7 4 3 1 2 3

Total # of neighbors = 794477
Ave neighs/atom = 308.295
Neighbor list builds = 11798
Dangerous builds = 0














Please see the log.cite file for references relevant to this simulation

Total wall time: 3:01:59
