LAMMPS data file via write_data, version 7 Aug 2019, timestep = 317

20960 atoms
2 atom types

1.0256727070893907e+00 5.9444297569191029e+01 xlo xhi
1.0212633940339324e+00 5.9188749658505110e+01 ylo yhi
1.0855511518514918e+00 6.2914636658664826e+01 zlo zhi

Masses

1 55.847
2 15.9994

Atoms # charge

1 1 6.0587665628734499e-01 4.1059168099203633e+00 2.4404452213013736e+00 4.1813073135020344e+00 0 0 0
5278 1 5.8964968800142681e-01 1.5629278135182059e+01 1.5122030302541997e+01 1.2672835827190754e+00 0 0 0
658 1 6.9110761372695173e-01 1.2709065763449328e+01 2.7120549722948116e+01 1.3451324853445900e+01 0 0 0
4 1 6.8110495198592291e-01 2.4960622784354456e+00 5.3493460916046702e+00 3.2042832775890777e+00 0 0 0
5 1 5.8980562434737849e-01 3.9214006737870570e+00 3.5167853461901113e+00 1.2894771816765827e+00 0 0 0
7 2 -3.3886767405577095e-01 1.0257014455598978e+00 4.1209175779953702e+00 3.2214786938658184e+00 0 0 0
8 2 -2.8868757519507698e-01 2.4915099824089229e+00 5.3785930680242444e+00 5.2042468798803014e+00 0 0 0
9 2 -4.9581609818445249e-01 3.9555341734124765e+00 4.0656716444928156e+00 3.0050956415391448e+00 0 0 0
10 2 -3.2037157673416494e-01 1.0258200478557198e+00 6.7207875053330248e+00 3.1621277130973913e+00 0 0 0
11 2 -4.1241295130875083e-01 2.6073902413864998e+00 6.2056691605654475e+00 1.1999410935574941e+00 0 0 0
12 2 -4.3306499521139641e-01 5.2792783163953665e+00 6.2146564448954251e+00 1.1641644412215486e+00 0 0 0
13 2 -4.8195277107047368e-01 3.9592578025589247e+00 6.6516357970504378e+00 3.0546450914049621e+00 0 0 0
14 1 5.8015864333131317e-01 3.9184617179206378e+00 7.0336192322660853e+00 1.1872320898441566e+00 0 0 0
62 2 -3.0374846662449273e-01 2.4899205525571881e+00 2.4312618262272152e+00 5.1870465249431446e+00 0 0 0
69 1 5.6520878043744238e-01 6.8595733136306123e+00 2.6608430349528618e+00 2.0616440767706545e+00 0 0 0
70 1 6.9102419411523464e-01 8.3243420337809066e+00 5.3380620604981885e+00 3.0007167624105771e+00 0 0 0
71 1 6.8844808491806109e-01 5.4076431662135995e+00 5.3388938816975671e+00 2.9938398709278937e+00 0 0 0
74 2 -4.8009919076191465e-01 6.8654658716478645e+00 4.1558501978671298e+00 3.3167949363266489e+00 0 0 0
75 2 -4.8808915176274831e-01 5.6274367817903963e+00 5.3653105554846814e+00 5.0493816585478779e+00 0 0 0
76 2 -4.7669857727687270e-01 8.1376638347021775e+00 5.3661149197493616e+00 5.0494399089147137e+00 0 0 0
78 2 -4.6220527762213298e-01 6.8652858868763467e+00 6.6822741465677540e+00 3.2686091782876066e+00 0 0 0
145 2 -5.0114102837153407e-01 5.6320891851544292e+00 2.4439021637354887e+00 5.3402835170310095e+00 0 0 0
146 2 -4.8968138952684925e-01 8.1325970222040400e+00 2.4429799799624652e+00 5.3400733114703938e+00 0 0 0
148 1 6.8647066036876636e-01 6.8648728205568439e+00 3.9110939484204406e+00 5.1836845982270354e+00 0 0 0
152 1 6.8632779207190353e-01 6.8654226293329366e+00 6.8001182615307290e+00 5.1770353693698601e+00 0 0 0
67 1 5.9373399972429164e-01 9.7895014812147494e+00 2.4376497574546074e+00 4.2064108276837295e+00 0 0 0
676 2 -4.9317100973903921e-01 1.5630178440898074e+01 2.6921461788125551e+01 1.5653206024204311e+01 0 0 0
72 1 5.9116907735521196e-01 9.7866679355909447e+00 3.4885180091379695e+00 1.2674495093544760e+00 0 0 0
77 2 -5.0577483437691806e-01 9.7878658471334195e+00 4.0563549316245773e+00 2.9899795639908389e+00 0 0 0
79 2 -4.2879817606717785e-01 8.4499677312021486e+00 6.2130871706932229e+00 1.1617528978949179e+00 0 0 0
80 2 -4.2965919364824029e-01 1.1128415772236284e+01 6.2155152857927813e+00 1.1616420787146022e+00 0 0 0
81 2 -4.9530437554051304e-01 9.7880479754641012e+00 6.6544114949480457e+00 3.0401131703252431e+00 0 0 0
82 1 5.8412438089053920e-01 9.7883458504439531e+00 7.0505131746425400e+00 1.1733498045621202e+00 0 0 0
273 1 5.9242473697955345e-01 1.5630081801105872e+01 2.4376568816078756e+00 4.2064478236653686e+00 0 0 0
274 1 5.6973965845375973e-01 1.2708902930560146e+01 2.6611496574535409e+00 2.0559992755454184e+00 0 0 0
275 1 6.9177261988398897e-01 1.4167159527949693e+01 5.3380718183658082e+00 3.0006190691936045e+00 0 0 0
276 1 6.9280998909986824e-01 1.1250792613760972e+01 5.3376173998173986e+00 3.0008594438589147e+00 0 0 0
278 2 -4.7451477429922856e-01 1.2709380981181379e+01 4.1562784337292245e+00 3.3176138708461260e+00 0 0 0
279 2 -4.7435929442262981e-01 1.1440493897355696e+01 5.3661026859216410e+00 5.0493119337347983e+00 0 0 0
280 2 -4.7596488733126163e-01 1.3978987181935778e+01 5.3661058811626328e+00 5.0494352515721541e+00 0 0 0
281 2 -5.0757010289289661e-01 1.5630038027790071e+01 4.0562516752506568e+00 2.9898972881167967e+00 0 0 0
282 2 -4.5588968981299688e-01 1.2709530099835881e+01 6.6821470117581958e+00 3.2692670561626374e+00 0 0 0
283 2 -4.2978047586119394e-01 1.4292606054493973e+01 6.2132370773306835e+00 1.1615517936027744e+00 0 0 0
284 2 -4.9707708425365804e-01 1.5630216888365835e+01 6.6545875827315104e+00 3.0400523408744800e+00 0 0 0
335 2 -4.8721088356081771e-01 1.1444916185389360e+01 2.4429997370065628e+00 5.3401410056234369e+00 0 0 0
336 2 -4.8893208705257390e-01 1.3973910816065162e+01 2.4429865527000789e+00 5.3401193480233982e+00 0 0 0
338 1 6.8874437486059004e-01 1.2709153425617075e+01 3.9108382867035667e+00 5.1837936934719355e+00 0 0 0
342 1 6.8859199845475050e-01 1.2709028045806877e+01 6.8001912742754742e+00 5.1769866204431834e+00 0 0 0
6 1 6.0587742667741185e-01 4.1059167549269366e+00 8.2571943703585653e+00 4.1813080837359040e+00 0 0 0
657 2 -4.9792150039693206e-01 1.2709030882244315e+01 2.6899575652727119e+01 1.5364101037686828e+01 0 0 0
16 1 6.8110504485962886e-01 2.4960623073400132e+00 1.1166093679464913e+01 3.2042833203040098e+00 0 0 0
17 1 5.8980605805988928e-01 3.9214006027829811e+00 9.3335333585294862e+00 1.2894778165881517e+00 0 0 0
19 2 -3.3886719703061335e-01 1.0257014461333709e+00 9.9376649809324640e+00 3.2214781817690454e+00 0 0 0
20 2 -2.8868760714664332e-01 2.4915100005583022e+00 1.1195340538355637e+01 5.2042468637259409e+00 0 0 0
21 2 -4.9581619775150759e-01 3.9555341914995918e+00 9.8824199110804507e+00 3.0050957258790350e+00 0 0 0
22 2 -3.2037160493625150e-01 1.0258200477223895e+00 1.2537534894626173e+01 3.1621277341140668e+00 0 0 0
23 2 -4.1241305772801118e-01 2.6073901619970483e+00 1.2022416815189414e+01 1.1999411724547719e+00 0 0 0
24 2 -4.3306513638484073e-01 5.2792783568726351e+00 1.2031404082737039e+01 1.1641644822274291e+00 0 0 0
25 2 -4.8195278852464363e-01 3.9592577784657710e+00 1.2468383310192744e+01 3.0546451057417481e+00 0 0 0
26 1 5.8015866100243718e-01 3.9184616916166850e+00 1.2850366795925822e+01 1.1872322148598047e+00 0 0 0
63 2 -3.0374850639497825e-01 2.4899208023547392e+00 8.2480109664616599e+00 5.1870464336946220e+00 0 0 0
83 1 5.6520986691199804e-01 6.8595732868976285e+00 8.4775884634013341e+00 2.0616424831137645e+00 0 0 0
84 1 6.9102432263355784e-01 8.3243420132709218e+00 1.1154809567615574e+01 3.0007165411009353e+00 0 0 0
85 1 6.8844821113571020e-01 5.4076431758825905e+00 1.1155641381489980e+01 2.9938396321657086e+00 0 0 0
88 2 -4.8009884152724852e-01 6.8654658667793198e+00 9.9725981519564204e+00 3.3167946830954733e+00 0 0 0
89 2 -4.8808937658733903e-01 5.6274365022136497e+00 1.1182058657006165e+01 5.0493815300163813e+00 0 0 0
90 2 -4.7669877804660166e-01 8.1376641229307065e+00 1.1182863007696143e+01 5.0494397698601929e+00 0 0 0
92 2 -4.6220535928915446e-01 6.8652858837782613e+00 1.2499021687770188e+01 3.2686091115833786e+00 0 0 0
159 2 -5.0114133997507759e-01 5.6320883894014546e+00 8.2606530410334376e+00 5.3402839277793976e+00 0 0 0
160 2 -4.8968171075294120e-01 8.1325978665091316e+00 8.2597308026576250e+00 5.3400737144003108e+00 0 0 0
162 1 6.8647095911117029e-01 6.8648728290145442e+00 9.7278446699238525e+00 5.1836859708349117e+00 0 0 0
166 1 6.8632783141595288e-01 6.8654226194138248e+00 1.2616866536678705e+01 5.1770348712691607e+00 0 0 0
73 1 5.9373480119779076e-01 9.7895014789847750e+00 8.2543986031541152e+00 4.2064116053046723e+00 0 0 0
86 1 5.9116955993329445e-01 9.7866679336741385e+00 9.3052660543915273e+00 1.2674501644678335e+00 0 0 0
91 2 -5.0577491305635180e-01 9.7878658450498879e+00 9.8731031447398667e+00 2.9899796149236830e+00 0 0 0
93 2 -4.2879832214301666e-01 8.4499676813598938e+00 1.2029834806363930e+01 1.1617529340533841e+00 0 0 0
94 2 -4.2965934618131169e-01 1.1128415819320058e+01 1.2032262921551974e+01 1.1616421153865970e+00 0 0 0
95 2 -4.9530437682793849e-01 9.7880479748638276e+00 1.2471159017108263e+01 3.0401131532185692e+00 0 0 0
96 1 5.8412439293379292e-01 9.7883458492397430e+00 1.2867260766742625e+01 1.1733499242925785e+00 0 0 0
277 1 5.9242553312601021e-01 1.5630081802586806e+01 8.2544057502204886e+00 4.2064485985061193e+00 0 0 0
285 1 5.6974073795455249e-01 1.2708902936554086e+01 8.4778951130288736e+00 2.0559977126671614e+00 0 0 0
286 1 6.9177274046716020e-01 1.4167159509529977e+01 1.1154819320569738e+01 3.0006188536392533e+00 0 0 0
287 1 6.9281011520018954e-01 1.1250792630800966e+01 1.1154364902503085e+01 3.0008592277976471e+00 0 0 0
289 2 -4.7451442360017099e-01 1.2709380980590108e+01 9.9730263931344254e+00 3.3176136293376097e+00 0 0 0
290 2 -4.7435950222472717e-01 1.1440493607326621e+01 1.1182850777776061e+01 5.0493117973810646e+00 0 0 0
291 2 -4.7596510141790621e-01 1.3978987471610740e+01 1.1182853976521995e+01 5.0494351150746013e+00 0 0 0
292 2 -5.0757019205758214e-01 1.5630038027095090e+01 9.8729998916920731e+00 2.9898973375655395e+00 0 0 0
293 2 -4.5588978711172873e-01 1.2709530099483363e+01 1.2498894553827490e+01 3.2692669911138328e+00 0 0 0
294 2 -4.2978063093377372e-01 1.4292606004812590e+01 1.2029984714031835e+01 1.1615518307417771e+00 0 0 0
295 2 -4.9707709896821756e-01 1.5630216888488240e+01 1.2471335105415582e+01 3.0400523238370956e+00 0 0 0
349 2 -4.8721118925190332e-01 1.1444915348398336e+01 8.2597505641084545e+00 5.3401414162955412e+00 0 0 0
350 2 -4.8893240304209945e-01 1.3973911641618670e+01 8.2597374049821273e+00 5.3401197481163640e+00 0 0 0
352 1 6.8874466078251484e-01 1.2709153417346062e+01 9.7275890716689215e+00 5.1837951726911813e+00 0 0 0
356 1 6.8859202547150233e-01 1.2709028045244866e+01 1.2616939572399758e+01 5.1769861043858745e+00 0 0 0
18 1 6.0587746580122692e-01 4.1059167572469955e+00 1.4073941741115394e+01 4.1813080919010384e+00 0 0 0
656 2 -4.9268463200408974e-01 1.3976408749647151e+01 2.5658913727613626e+01 1.3583055342922895e+01 0 0 0
28 1 6.8110506266563875e-01 2.4960623074240647e+00 1.6982841036942727e+01 3.2042833171645904e+00 0 0 0
29 1 5.8980605866008984e-01 3.9214006002114283e+00 1.5150280731429742e+01 1.2894778181790969e+00 0 0 0
31 2 -3.3886715659423622e-01 1.0257014461615341e+00 1.5754412331761461e+01 3.2214781812143336e+00 0 0 0
32 2 -2.8868759045929082e-01 2.4915100005746988e+00 1.7012087903866178e+01 5.2042468632472847e+00 0 0 0
33 2 -4.9581618591921583e-01 3.9555341912573319e+00 1.5699167272793961e+01 3.0050957228320829e+00 0 0 0
34 2 -3.2037160208650328e-01 1.0258200477168360e+00 1.8354282258198324e+01 3.1621277342810807e+00 0 0 0
35 2 -4.1241304949919511e-01 2.6073901583450150e+00 1.7839164182619616e+01 1.1999411730038501e+00 0 0 0
36 2 -4.3306512981796019e-01 5.2792783599211548e+00 1.7848151450104151e+01 1.1641644822194437e+00 0 0 0
37 2 -4.8195278236216654e-01 3.9592577777548352e+00 1.8285130674811711e+01 3.0546451047444321e+00 0 0 0
38 1 5.8015866421275097e-01 3.9184616911849601e+00 1.8667114159493750e+01 1.1872322126087000e+00 0 0 0
64 2 -3.0374847656118115e-01 2.4899207983525460e+00 1.4064758336014748e+01 5.1870464252520811e+00 0 0 0
97 1 5.6520987927210231e-01 6.8595732897628636e+00 1.4294335746044508e+01 2.0616424596964742e+00 0 0 0
98 1 6.9102433581423883e-01 8.3243420137544284e+00 1.6971556925321121e+01 3.0007165304082810e+00 0 0 0
99 1 6.8844822741683265e-01 5.4076431743579212e+00 1.6972388738130039e+01 2.9938396214006326e+00 0 0 0
102 2 -4.8009880852838077e-01 6.8654658671828832e+00 1.5789345523759488e+01 3.3167946824763161e+00 0 0 0
103 2 -4.8808937676394354e-01 5.6274364898703402e+00 1.6998806041093530e+01 5.0493815263834803e+00 0 0 0
104 2 -4.7669878143751471e-01 8.1376641354296719e+00 1.6999610391119745e+01 5.0494397656823606e+00 0 0 0
106 2 -4.6220536024805259e-01 6.8652858837365951e+00 1.8315769053787417e+01 3.2686091104635446e+00 0 0 0
173 2 -5.0114136809964882e-01 5.6320883190709363e+00 1.4077400537108378e+01 5.3402839366586354e+00 0 0 0
174 2 -4.8968172972046631e-01 8.1325979355997529e+00 1.4076478295856981e+01 5.3400737254802912e+00 0 0 0
176 1 6.8647097637320831e-01 6.8648728269334391e+00 1.5544592228968783e+01 5.1836860495534367e+00 0 0 0
180 1 6.8632783330743019e-01 6.8654226191400571e+00 1.8433613927774797e+01 5.1770348596487770e+00 0 0 0
87 1 5.9373485126643089e-01 9.7895014783587229e+00 1.4071145962425904e+01 4.2064116188041440e+00 0 0 0
100 1 5.9116955546629857e-01 9.7866679336766538e+00 1.5122013429013112e+01 1.2674501664051758e+00 0 0 0
105 2 -5.0577490833686256e-01 9.7878658451565901e+00 1.5689850507026561e+01 2.9899796103241845e+00 0 0 0
107 2 -4.2879832005937191e-01 8.4499676777274271e+00 1.7846582174346285e+01 1.1617529338322268e+00 0 0 0
108 2 -4.2965934849597720e-01 1.1128415822940280e+01 1.7849010289482994e+01 1.1616421152150957e+00 0 0 0
109 2 -4.9530437853724502e-01 9.7880479748066218e+00 1.8287906382545472e+01 3.0401131517526778e+00 0 0 0
110 1 5.8412438862436089e-01 9.7883458492354514e+00 1.8684008130528476e+01 1.1733499214820693e+00 0 0 0
288 1 5.9242557045494204e-01 1.5630081802626803e+01 1.4071153109875782e+01 4.2064486123849170e+00 0 0 0
296 1 5.6974074078872550e-01 1.2708902937044403e+01 1.4294642393316838e+01 2.0559976901006070e+00 0 0 0
297 1 6.9177274351396800e-01 1.4167159510156960e+01 1.6971566678268637e+01 3.0006188426298466e+00 0 0 0
298 1 6.9281012160254507e-01 1.1250792630193320e+01 1.6971112260123419e+01 3.0008592168950696e+00 0 0 0
300 2 -4.7451440380783128e-01 1.2709380980600045e+01 1.5789773764534626e+01 3.3176136288707991e+00 0 0 0
301 2 -4.7435951542162230e-01 1.1440493594563039e+01 1.6999598161376362e+01 5.0493117931581111e+00 0 0 0
302 2 -4.7596511850368806e-01 1.3978987484411572e+01 1.6999601360195843e+01 5.0494351108390356e+00 0 0 0
303 2 -5.0757019841296314e-01 1.5630038027135072e+01 1.5689747253872437e+01 2.9898973329127103e+00 0 0 0
304 2 -4.5588979938353980e-01 1.2709530099461418e+01 1.8315641919807113e+01 3.2692669900667264e+00 0 0 0
305 2 -4.2978063623714147e-01 1.4292606001073938e+01 1.7846732082044493e+01 1.1615518304970771e+00 0 0 0
306 2 -4.9707710754967438e-01 1.5630216888500721e+01 1.8288082470899909e+01 3.0400523223113232e+00 0 0 0
363 2 -4.8721122101566300e-01 1.1444915277044203e+01 1.4076498060130820e+01 5.3401414275891117e+00 0 0 0
364 2 -4.8893244038132178e-01 1.3973911712421931e+01 1.4076484901137285e+01 5.3401197595952192e+00 0 0 0
366 1 6.8874466291514436e-01 1.2709153417625689e+01 1.5544336634742015e+01 5.1837952543289711e+00 0 0 0
370 1 6.8859201497447275e-01 1.2709028045299549e+01 1.8433686963859873e+01 5.1769860925849178e+00 0 0 0
30 1 6.0587746900293060e-01 4.1059167573973285e+00 1.9890689108460244e+01 4.1813080921846781e+00 0 0 0
655 2 -4.9275095554916948e-01 1.1441525227311731e+01 2.5658910774992361e+01 1.3582905214298245e+01 0 0 0
40 1 6.8110506493986533e-01 2.4960623074016937e+00 2.2799588402288617e+01 3.2042833172244696e+00 0 0 0
41 1 5.8980606123780477e-01 3.9214006002193615e+00 2.0967028097118909e+01 1.2894778182482038e+00 0 0 0
43 2 -3.3886715148560287e-01 1.0257014461610705e+00 2.1571159697018864e+01 3.2214781812885933e+00 0 0 0
44 2 -2.8868758810141859e-01 2.4915100005375268e+00 2.2828835269368717e+01 5.2042468632767385e+00 0 0 0
45 2 -4.9581618200949379e-01 3.9555341912140669e+00 2.1515914638395039e+01 3.0050957227728863e+00 0 0 0
46 2 -3.2037160206559073e-01 1.0258200477160797e+00 2.4171029623777585e+01 3.1621277342854417e+00 0 0 0
47 2 -4.1241304846183541e-01 2.6073901583162673e+00 2.3655911548155061e+01 1.1999411730015337e+00 0 0 0
48 2 -4.3306513031267502e-01 5.2792783599572521e+00 2.3664898815643902e+01 1.1641644822062196e+00 0 0 0
49 2 -4.8195278307687767e-01 3.9592577777379856e+00 2.4101878040401385e+01 3.0546451047090288e+00 0 0 0
50 1 5.8015866343167588e-01 3.9184616911833703e+00 2.4483861524768194e+01 1.1872322125742916e+00 0 0 0
65 2 -3.0374847110482461e-01 2.4899207985551750e+00 1.9881505700411800e+01 5.1870464252110988e+00 0 0 0
111 1 5.6520987863193239e-01 6.8595732898229294e+00 2.0111083111912794e+01 2.0616424585816158e+00 0 0 0
112 1 6.9102433259230667e-01 8.3243420138005373e+00 2.2788304290761193e+01 3.0007165304167653e+00 0 0 0
113 1 6.8844822756004032e-01 5.4076431742689044e+00 2.2789136103552032e+01 2.9938396214293865e+00 0 0 0
116 2 -4.8009880744445765e-01 6.8654658671801796e+00 2.1606092889477409e+01 3.3167946824710386e+00 0 0 0
117 2 -4.8808937749292680e-01 5.6274364897655333e+00 2.2815553406747014e+01 5.0493815263842130e+00 0 0 0
118 2 -4.7669878556913720e-01 8.1376641355367276e+00 2.2816357756754876e+01 5.0494397656813534e+00 0 0 0
120 2 -4.6220536394092343e-01 6.8652858837373198e+00 2.4132516419356822e+01 3.2686091104446549e+00 0 0 0
187 2 -5.0114136774779838e-01 5.6320883175162635e+00 1.9894147903866170e+01 5.3402839367810042e+00 0 0 0
188 2 -4.8968173403953880e-01 8.1325979372165431e+00 1.9893225662389789e+01 5.3400737256637010e+00 0 0 0
190 1 6.8647097696655179e-01 6.8648728269460424e+00 2.1361339597375601e+01 5.1836860503621365e+00 0 0 0
194 1 6.8632782915960588e-01 6.8654226191430610e+00 2.4250361293422543e+01 5.1770348596005284e+00 0 0 0
101 1 5.9373484573981783e-01 9.7895014783819505e+00 1.9887893329674672e+01 4.2064116192234202e+00 0 0 0
114 1 5.9116955208671429e-01 9.7866679336779328e+00 2.0938760794572509e+01 1.2674501665478235e+00 0 0 0
119 2 -5.0577491129076879e-01 9.7878658451469018e+00 2.1506597872734371e+01 2.9899796102141036e+00 0 0 0
121 2 -4.2879832365972093e-01 8.4499676777020198e+00 2.3663329539869217e+01 1.1617529337945265e+00 0 0 0
122 2 -4.2965935444075426e-01 1.1128415822992899e+01 2.3665757655023974e+01 1.1616421151807075e+00 0 0 0
123 2 -4.9530438518637998e-01 9.7880479748042983e+00 2.4104653748158402e+01 3.0401131516903397e+00 0 0 0
124 1 5.8412438322464388e-01 9.7883458492378423e+00 2.4500755495795332e+01 1.1733499214367806e+00 0 0 0
299 1 5.9242555920467632e-01 1.5630081802617516e+01 1.9887900477026495e+01 4.2064486128083889e+00 0 0 0
307 1 5.6974073279372650e-01 1.2708902937034690e+01 2.0111389758957017e+01 2.0559976891471550e+00 0 0 0
308 1 6.9177273530224337e-01 1.4167159510210507e+01 2.2788314043697181e+01 3.0006188426385454e+00 0 0 0
309 1 6.9281011499321110e-01 1.1250792630123183e+01 2.2787859625540300e+01 3.0008592169245758e+00 0 0 0
311 2 -4.7451441052115123e-01 1.2709380980600983e+01 2.1606521130254681e+01 3.3176136288650286e+00 0 0 0
312 2 -4.7435952410852150e-01 1.1440493594450389e+01 2.2816345527022971e+01 5.0493117931410678e+00 0 0 0
313 2 -4.7596512874182034e-01 1.3978987484529256e+01 2.2816348725842101e+01 5.0494351108203013e+00 0 0 0
314 2 -5.0757020567965339e-01 1.5630038027131324e+01 2.1506494619571367e+01 2.9898973327965921e+00 0 0 0
315 2 -4.5588980857146533e-01 1.2709530099460700e+01 2.4132389285364532e+01 3.2692669900480356e+00 0 0 0
316 2 -4.2978064336917882e-01 1.4292606001036159e+01 2.3663479447565287e+01 1.1615518304500174e+00 0 0 0
317 2 -4.9707711591690901e-01 1.5630216888497889e+01 2.4104829836515385e+01 3.0400523222438696e+00 0 0 0
377 2 -4.8721123189714755e-01 1.1444915275386098e+01 1.9893245426700620e+01 5.3401414278055128e+00 0 0 0
378 2 -4.8893245453375661e-01 1.3973911714077378e+01 1.9893232267720776e+01 5.3401197598119099e+00 0 0 0
380 1 6.8874465483999880e-01 1.2709153417620183e+01 2.1361084003116950e+01 5.1837952550827628e+00 0 0 0
384 1 6.8859200517518115e-01 1.2709028045295513e+01 2.4250434329478942e+01 5.1769860925549365e+00 0 0 0
42 1 6.0587746618211313e-01 4.1059167574016842e+00 2.5707436473924535e+01 4.1813080922199024e+00 0 0 0
654 2 -4.9452511253636799e-01 9.7878960938989117e+00 2.6921388477221903e+01 1.5653215226165015e+01 0 0 0
52 1 6.8110506268311810e-01 2.4960623073959054e+00 2.8616335767749817e+01 3.2042833172363401e+00 0 0 0
53 1 5.8980605930904040e-01 3.9214006002136443e+00 2.6783775462626469e+01 1.2894778182361459e+00 0 0 0
54 2 -3.3886715362252751e-01 1.0257014461599598e+00 2.7387907062451461e+01 3.2214781812971083e+00 0 0 0
55 2 -2.8868759121158777e-01 2.4915100005333031e+00 2.8645582634829150e+01 5.2042468632822310e+00 0 0 0
56 2 -4.9581618483536227e-01 3.9555341912119149e+00 2.7332662003861099e+01 3.0050957227660220e+00 0 0 0
57 2 -3.2037160400213394e-01 1.0258200477162209e+00 2.9987776989258251e+01 3.1621277342982599e+00 0 0 0
58 2 -4.1241304994669081e-01 2.6073901583236525e+00 2.9472658913633673e+01 1.1999411730050735e+00 0 0 0
59 2 -4.3306513250356576e-01 5.2792783599606086e+00 2.9481646181124088e+01 1.1641644822057056e+00 0 0 0
60 2 -4.8195278550682047e-01 3.9592577777378293e+00 2.9918625405884853e+01 3.0546451047119616e+00 0 0 0
674 1 6.9078045078224137e-01 1.4169453166649923e+01 2.5653680535950674e+01 1.5512395070968797e+01 0 0 0
66 2 -3.0374847348141015e-01 2.4899207985722338e+00 2.5698253065893390e+01 5.1870464252169537e+00 0 0 0
125 1 5.6520987450275850e-01 6.8595732898174688e+00 2.5927830477391577e+01 2.0616424586036808e+00 0 0 0
126 1 6.9102432777105660e-01 8.3243420137910284e+00 2.8605051656222400e+01 3.0007165304203518e+00 0 0 0
127 1 6.8844822425771679e-01 5.4076431742697411e+00 2.8605883469003480e+01 2.9938396214415679e+00 0 0 0
129 2 -4.8009881234558477e-01 6.8654658671800215e+00 2.7422840254941839e+01 3.3167946824776342e+00 0 0 0
130 2 -4.8808938208998920e-01 5.6274364897677014e+00 2.8632300772235968e+01 5.0493815263853934e+00 0 0 0
131 2 -4.7669879167767815e-01 8.1376641355402519e+00 2.8633105122246622e+01 5.0494397656843608e+00 0 0 0
133 2 -4.6220536756286762e-01 6.8652858837375481e+00 2.9949263784835377e+01 3.2686091104502619e+00 0 0 0
201 2 -5.0114137249808077e-01 5.6320883175126522e+00 2.5710895269388431e+01 5.3402839367834964e+00 0 0 0
202 2 -4.8968174138003101e-01 8.1325979372181454e+00 2.5709973027910170e+01 5.3400737256612061e+00 0 0 0
204 1 6.8647097126202794e-01 6.8648728269557697e+00 2.7178086962845256e+01 5.1836860503819446e+00 0 0 0
206 1 6.8632782508399270e-01 6.8654226191376706e+00 3.0067108658888454e+01 5.1770348595970415e+00 0 0 0
115 1 5.9373483800178051e-01 9.7895014783748273e+00 2.5704640695139133e+01 4.2064116192657774e+00 0 0 0
128 1 5.9116954677848665e-01 9.7866679336733071e+00 2.6755508160075539e+01 1.2674501665384088e+00 0 0 0
132 2 -5.0577491790016305e-01 9.7878658451449692e+00 2.7323345238195341e+01 2.9899796102066216e+00 0 0 0
134 2 -4.2879832707503834e-01 8.4499676777087380e+00 2.9480076905339939e+01 1.1617529337845933e+00 0 0 0
135 2 -4.2965935856970561e-01 1.1128415822998022e+01 2.9482505020499691e+01 1.1616421151720397e+00 0 0 0
136 2 -4.9530438974685509e-01 9.7880479748051652e+00 2.9921401113641945e+01 3.0401131516868451e+00 0 0 0
5272 1 5.8964922546694942e-01 1.5629278134318184e+01 3.4885348813720451e+00 1.2672829263065437e+00 0 0 0
310 1 5.9242555115791784e-01 1.5630081802617161e+01 2.5704647842486423e+01 4.2064486128428200e+00 0 0 0
318 1 5.6974072537244869e-01 1.2708902937033621e+01 2.5928137124437555e+01 2.0559976891918015e+00 0 0 0
319 1 6.9177272964852166e-01 1.4167159510200950e+01 2.8605061409157639e+01 3.0006188426351978e+00 0 0 0
320 1 6.9281010911037799e-01 1.1250792630122817e+01 2.8604606990992789e+01 3.0008592169333395e+00 0 0 0
321 2 -4.7451441818579237e-01 1.2709380980602798e+01 2.7423268495722162e+01 3.3176136288789349e+00 0 0 0
322 2 -4.7435953156173649e-01 1.1440493594450929e+01 2.8633092892514366e+01 5.0493117931392000e+00 0 0 0
323 2 -4.7596513584170747e-01 1.3978987484537761e+01 2.8633096091337404e+01 5.0494351108174333e+00 0 0 0
324 2 -5.0757021195480645e-01 1.5630038027134979e+01 2.7323241985036155e+01 2.9898973327942975e+00 0 0 0
325 2 -4.5588981353766034e-01 1.2709530099462810e+01 2.9949136650842764e+01 3.2692669900553391e+00 0 0 0
326 2 -4.2978064737844035e-01 1.4292606001044547e+01 2.9480226813033518e+01 1.1615518304380414e+00 0 0 0
327 2 -4.9707711983946296e-01 1.5630216888502313e+01 2.9921577201998772e+01 3.0400523222408222e+00 0 0 0
391 2 -4.8721124202408850e-01 1.1444915275385245e+01 2.5709992792224742e+01 5.3401414277972323e+00 0 0 0
392 2 -4.8893246484458253e-01 1.3973911714081375e+01 2.5709979633249116e+01 5.3401197598030778e+00 0 0 0
394 1 6.8874464612940622e-01 1.2709153417628279e+01 2.7177831368582787e+01 5.1837952551088540e+00 0 0 0
396 1 6.8859199984073605e-01 1.2709028045283711e+01 3.0067181694942033e+01 5.1769860925486944e+00 0 0 0
138 1 6.8531852939562843e-01 5.4093410390300249e+00 2.4381948081186500e+00 7.2690562916868684e+00 0 0 0
139 1 6.8402633542320423e-01 2.4905687697137529e+00 2.4368006767754609e+00 7.0745268842987139e+00 0 0 0
140 1 5.8966357242297207e-01 6.8615873291461247e+00 5.3123564270844579e+00 8.2726012698285896e+00 0 0 0
141 2 -4.8539250129690409e-01 3.9538913242816012e+00 1.1963321381154761e+00 7.4027950451627680e+00 0 0 0
142 2 -4.7501333708467269e-01 2.6746821336596001e+00 2.4321377426859643e+00 9.1589743297804933e+00 0 0 0
143 2 -4.9245981742037609e-01 5.2084143928532489e+00 2.4322333879904914e+00 9.1920651704640850e+00 0 0 0
144 2 -4.8076055477218221e-01 3.9526319389508786e+00 3.6994187918159707e+00 7.3947299827836916e+00 0 0 0
147 2 -5.0065048127480283e-01 6.8653009488789110e+00 3.6845447914170029e+00 7.1155226471043775e+00 0 0 0
149 1 6.0620774141102174e-01 4.1064192562630364e+00 5.3751009471287947e+00 6.2925930612165963e+00 0 0 0
157 2 -4.9495120787549884e-01 6.8652978901555572e+00 6.9852264096635679e+00 7.1217534871959742e+00 0 0 0
209 1 5.8634474687013205e-01 1.0259975938925299e+00 2.4464392914931041e+00 1.0381776887165142e+01 0 0 0
211 1 6.8750541983339963e-01 3.9084912249397155e+00 3.8727732188723532e+00 9.2999976083837090e+00 0 0 0
215 2 -4.9395274181376825e-01 3.9460171534676434e+00 4.0503450369648881e+00 1.1243467993415400e+01 0 0 0
217 2 -5.0158263256609625e-01 2.6795961444930465e+00 5.3254587843287347e+00 9.4878569550809200e+00 0 0 0
218 2 -4.9312453021934038e-01 5.2061015806931579e+00 5.3256899770549255e+00 9.4563549528154685e+00 0 0 0
219 2 -4.9949082505284592e-01 3.9458181574314066e+00 6.5688684422940522e+00 1.1236319384777618e+01 0 0 0
220 1 6.8602456539660994e-01 3.9078950600844542e+00 6.7930902973517444e+00 9.3020796486831578e+00 0 0 0
329 1 6.8790792094493658e-01 8.3245395846293668e+00 2.4369884675643796e+00 7.2610047857556097e+00 0 0 0
399 1 5.9253131465633324e-01 6.8702807983231082e+00 2.4456271909374290e+00 1.0381501352965385e+01 0 0 0
328 1 6.8977134947434915e-01 1.1250779813638532e+01 2.4370471858461689e+00 7.2608695637083152e+00 0 0 0
330 1 5.9490433444917068e-01 1.2708835706886457e+01 5.3121356122478183e+00 8.2789316647108038e+00 0 0 0
331 2 -4.9907140949967149e-01 9.7881910642024970e+00 1.1922076372171742e+00 7.4167845370577838e+00 0 0 0
332 2 -4.9144941589736035e-01 8.5204506871630450e+00 2.4322236353562841e+00 9.1960601022404678e+00 0 0 0
333 2 -4.9268773047940484e-01 1.1056189409572076e+01 2.4322318479981986e+00 9.1963859141059938e+00 0 0 0
334 2 -4.9317981156642599e-01 9.7881883380502561e+00 3.7045039349307709e+00 7.4092590432132255e+00 0 0 0
337 2 -4.9438991115191450e-01 1.2709142208547158e+01 3.6839533647860296e+00 7.1148470314427392e+00 0 0 0
339 1 5.9432876799069667e-01 9.7902670557707872e+00 5.3798479379882229e+00 6.2675153268721830e+00 0 0 0
347 2 -4.8860068892105052e-01 1.2709152638836468e+01 6.9855511121867444e+00 7.1211876418618703e+00 0 0 0
402 1 6.9329316234961325e-01 9.7877795339051019e+00 3.8783590768564022e+00 9.3276943042539013e+00 0 0 0
407 2 -4.9237152593490946e-01 9.7882266918985703e+00 4.0527242050374328e+00 1.1249245263746243e+01 0 0 0
409 2 -4.9086569060046237e-01 8.5194122234730507e+00 5.3256443384027792e+00 9.4599327748874984e+00 0 0 0
410 2 -4.9347423747512958e-01 1.1055729956339842e+01 5.3256308063754103e+00 9.4609858566301135e+00 0 0 0
411 2 -4.9785035484862211e-01 9.7882301761898809e+00 6.5662911312219183e+00 1.1241921366334603e+01 0 0 0
412 1 6.9188543780976930e-01 9.7877979780988174e+00 6.7880082962539063e+00 9.3279663633861656e+00 0 0 0
528 1 6.8875596035833453e-01 1.4167068192816965e+01 2.4370073598305648e+00 7.2611613149631822e+00 0 0 0
529 2 -4.9282867498412292e-01 1.4362599735851102e+01 2.4322288549849085e+00 9.1962955298862958e+00 0 0 0
539 1 5.9374938071080297e-01 1.2709845163672517e+01 2.4456743533710670e+00 1.0379430059281358e+01 0 0 0
542 1 6.9202666943474300e-01 1.5630175067553298e+01 3.8784245306058245e+00 9.3277254438248551e+00 0 0 0
547 2 -4.9276468920924449e-01 1.5630026765358734e+01 4.0525754808011580e+00 1.1249230182373397e+01 0 0 0
549 2 -4.9344128241013507e-01 1.4362378968733468e+01 5.3256294981060730e+00 9.4608026717136067e+00 0 0 0
550 2 -4.9824130374019066e-01 1.5630031234930319e+01 6.5664336761520392e+00 1.1241900785929895e+01 0 0 0
551 1 6.9059469265960183e-01 1.5630180252635734e+01 6.7879405855410528e+00 9.3279862611912829e+00 0 0 0
150 1 6.8531914885781942e-01 5.4093411214317326e+00 8.2549443030113725e+00 7.2690564502261896e+00 0 0 0
151 1 6.8402698070747348e-01 2.4905686876128073e+00 8.2535493589295594e+00 7.0745260896964091e+00 0 0 0
153 1 5.8966379879688036e-01 6.8615873449277993e+00 1.1129103923810401e+01 8.2726014820039513e+00 0 0 0
154 2 -4.8539326508710107e-01 3.9538911710638440e+00 7.0130846978570327e+00 7.4027946984929258e+00 0 0 0
155 2 -4.7501360140226789e-01 2.6746815464145759e+00 8.2488881786074550e+00 9.1589737578455104e+00 0 0 0
156 2 -4.9246011764811637e-01 5.2084149612056665e+00 8.2489838746782471e+00 9.1920647427034581e+00 0 0 0
158 2 -4.8076076920356209e-01 3.9526317978507057e+00 9.5161674582383444e+00 7.3947296467513670e+00 0 0 0
161 2 -5.0065058485968239e-01 6.8653009574335737e+00 9.5012940509423167e+00 7.1155228510224395e+00 0 0 0
163 1 6.0620787818726563e-01 4.1064192805783968e+00 1.1191848219921653e+01 6.2925929229183133e+00 0 0 0
171 2 -4.9495117806455269e-01 6.8652978906970379e+00 1.2801973925319572e+01 7.1217535007650108e+00 0 0 0