LAMMPS data file via write_data, version 7 Aug 2019, timestep = 320

2404 atoms
2 atom types

0.0000000000000000e+00 1.7523000000000000e+01 xlo xhi
0.0000000000000000e+00 3.5100000000000001e+01 ylo yhi
1.6160712815562899e+00 3.9161855467442493e+01 zlo zhi

Masses

1 55.847
2 15.9994

Atoms # charge

3 1 6.8663318121547556e-01 2.9941977817765164e-01 2.1659178928584505e-01 3.3052305808885309e+00 0 0 0
4 2 -4.7699068976152648e-01 1.0984231457384702e-01 2.2364040557514198e-01 5.2948195689753037e+00 0 0 0
5 2 -4.1699418280136152e-01 1.3497618880718651e-01 1.6875761577802906e+00 1.8269243810205060e+00 0 0 0
6 2 -4.1534097465795566e-01 3.3867359321435910e+00 1.6815002728615827e+00 1.8201347683832427e+00 0 0 0
7 2 -4.6359099516993685e-01 1.7596058851312435e+00 1.5440929407888637e+00 3.3907526026276864e+00 0 0 0
8 1 5.3672918970350336e-01 1.7619356962178141e+00 2.1685973154812808e+00 1.6409544477132505e+00 0 0 0
9 1 6.8639353030479133e-01 6.1422696553814449e+00 2.2200994182008163e-01 3.3234390407115790e+00 0 0 0
10 1 6.8651157470930213e-01 3.2211646208583851e+00 1.7441266382417595e-01 3.2862049219827543e+00 0 0 0
11 2 -4.8491126296395826e-01 3.3982509645494470e+00 2.1044879525543361e-01 5.2971874158900967e+00 0 0 0
12 2 -4.7395315075393940e-01 5.9435653332287046e+00 2.3034887745296412e-01 5.3230148963012942e+00 0 0 0
13 2 -4.2157631870071544e-01 4.6615658159296229e+00 1.4616933344519720e+00 3.7024641480210683e+00 0 0 0
14 1 6.9255353921203955e-01 4.5714011301104920e+00 1.6914138067442819e+00 5.4619748470236615e+00 0 0 0
16 2 -4.1632601925271301e-01 5.9642352905712066e+00 1.6887650396888794e+00 1.8353805481326551e+00 0 0 0
18 2 -4.6206712859784799e-01 7.5967886160234883e+00 1.5546761959896198e+00 3.3852817134719322e+00 0 0 0
19 1 5.3610058235976399e-01 7.5911463917539379e+00 2.1712970581336144e+00 1.6355837940702269e+00 0 0 0
28 1 5.9939737520795311e-01 1.7488831431730310e+00 3.1689674427075705e+00 4.6897770250283228e+00 0 0 0
30 1 6.8599288422957039e-01 3.0476082141043248e-01 6.0752152444624796e+00 3.3429265181387091e+00 0 0 0
31 1 5.3548033763478398e-01 1.7558946605109684e+00 4.1192257624099504e+00 1.6442317286991663e+00 0 0 0
32 2 -4.7030002634459628e-01 1.1811559651954162e-01 6.0731303468806610e+00 5.3555707550458926e+00 0 0 0
33 2 -4.7075787702592514e-01 1.7557077686799494e+00 4.7490844897035123e+00 3.4041294041407171e+00 0 0 0
34 2 -4.1723403104072226e-01 1.3927287839041572e-01 7.5478962881406595e+00 1.8727496228551321e+00 0 0 0
35 2 -4.1463465938612093e-01 3.3931512438071034e+00 7.5372417753303713e+00 1.8674451954866049e+00 0 0 0
36 2 -4.6139731157478853e-01 1.7662485197828999e+00 7.4104009692406789e+00 3.4365953335245583e+00 0 0 0
37 1 5.3671183165955649e-01 1.7687690309189603e+00 8.0295824474232447e+00 1.6877665469346124e+00 0 0 0
38 2 -4.9742381261964924e-01 6.6679423015024414e-02 3.1351415410534438e+00 5.6985415392248564e+00 0 0 0
39 1 6.2018534603422559e-01 4.6762968503345599e+00 3.1367039424212657e+00 2.5237609733520237e+00 0 0 0
40 1 6.8635263464872720e-01 6.1447659417618938e+00 6.0813867244566326e+00 3.3495255126986572e+00 0 0 0
41 1 6.8585761388881827e-01 3.2227314513289742e+00 6.0338244075780452e+00 3.3365303854240045e+00 0 0 0
42 2 -4.1675092615482395e-01 4.6908589763902357e+00 4.8256301916673241e+00 3.7397077546877688e+00 0 0 0
43 2 -4.8107809457867701e-01 3.4139827184550482e+00 6.0602821962105295e+00 5.3614941331200399e+00 0 0 0
44 2 -4.7219146775231685e-01 5.9646680517354644e+00 6.0783845792971185e+00 5.3673914649114538e+00 0 0 0
45 2 -4.2197400570490751e-01 4.6706560177372323e+00 7.3121869796710879e+00 3.7486546977761210e+00 0 0 0
46 2 -4.9316074779363861e-01 3.4156731774536131e+00 3.1682168221854465e+00 5.7158339922865604e+00 0 0 0
47 2 -4.9591184222527335e-01 5.9089025668243327e+00 3.1334273487764372e+00 5.7144712597593230e+00 0 0 0
48 1 6.9338794041294227e-01 4.7356437654659000e+00 4.6457202682614769e+00 5.5595270820457676e+00 0 0 0
49 1 6.9060587731503964e-01 4.5956723530552201e+00 7.5392464240688692e+00 5.5170365817898022e+00 0 0 0
50 1 5.9982024002600209e-01 7.5851067985479483e+00 3.1797826524909438e+00 4.6892072257816437e+00 0 0 0
51 1 5.3516929457121010e-01 7.5863057817174209e+00 4.1197991604436703e+00 1.6415525318845763e+00 0 0 0
52 2 -4.7150547983575730e-01 7.5931348032765928e+00 4.7515779621743031e+00 3.4025267119366895e+00 0 0 0
53 2 -4.1687868825146673e-01 5.9749739697365651e+00 7.5399489762852685e+00 1.8743514335733893e+00 0 0 0
55 2 -4.6191825109114926e-01 7.6073009392692201e+00 7.4054662788379257e+00 3.4298277298882183e+00 0 0 0
56 1 5.3612886852195785e-01 7.6096598218492950e+00 8.0155913817323370e+00 1.6766568401020949e+00 0 0 0
600 2 -4.1499495057300900e-01 1.2872571566985219e-01 4.5978848955129807e+00 1.8426753897746690e+00 0 0 1
577 2 -4.1482963763652841e-01 5.9616418693835262e+00 4.5992796334788073e+00 1.8486618255229201e+00 0 0 1
576 2 -4.1845007355702141e-01 3.3918594176511090e+00 4.5872598282416694e+00 1.8536851951495530e+00 0 0 1
281 2 -4.8929860379944784e-01 7.6025531565118944e+00 7.6989124275603880e+00 7.7914600340421414e+00 0 0 0
264 2 -4.8743667599803142e-01 1.7644608777051016e+00 7.7140705274719403e+00 7.7806797925340261e+00 0 0 0
252 1 6.9016545288463971e-01 7.5698062082603785e+00 7.6317170129923904e+00 9.8712579437411510e+00 0 0 0
249 2 -4.8046450375721339e-01 6.2265961256860685e+00 6.1056835680626218e+00 9.8265022404938787e+00 0 0 0
247 1 6.8809642783261771e-01 7.3229646752371860e+00 4.7384261062720068e+00 9.4748501932148592e+00 0 0 0
245 1 5.8930516869300142e-01 7.6386254581279278e+00 6.0363516379623654e+00 6.5291518012734153e+00 0 0 0
243 2 -5.0571543585124223e-01 7.5556838518607332e+00 4.4060436753905057e+00 7.6809719780478733e+00 0 0 0
241 2 -5.0217195650165103e-01 6.3078591886318920e+00 3.1553814251452681e+00 9.4769945214384954e+00 0 0 0
240 2 -4.8873699361308265e-01 7.5998878285903766e+00 1.8841280731000116e+00 7.7073839314810169e+00 0 0 0
237 1 5.9411642647919938e-01 4.6937115058815628e+00 3.1175919919846105e+00 1.0653405063077095e+01 0 0 0
236 1 6.9047555675289762e-01 6.1213026211996020e+00 2.9477028066234667e+00 7.5573623607377440e+00 0 0 0
235 1 6.9004143986388056e-01 1.7367187947654157e+00 7.6634886363592649e+00 9.8613377668017712e+00 0 0 0
233 2 -5.0825496415699090e-01 2.9210127927396123e+00 6.0970216206686541e+00 9.7594738747476821e+00 0 0 0
232 2 -4.7971029398719656e-01 4.0535683262460098e-01 6.1181617385420548e+00 9.8072200474118230e+00 0 0 0
230 1 6.8836831264560661e-01 1.5292294842059926e+00 4.7653317289399686e+00 9.4613216383100873e+00 0 0 0
229 2 -5.0471986871828811e-01 4.6147091405253002e+00 7.7167360932793407e+00 7.4675542630754563e+00 0 0 0
228 1 5.8922897594763590e-01 1.8023685677727550e+00 6.0402575755335493e+00 6.5201729487278861e+00 0 0 0
227 2 -4.8595351842923679e-01 4.6465955647780843e+00 4.4226070326879841e+00 7.4423847245208510e+00 0 0 0
226 2 -5.0605208240791300e-01 1.7252178121430657e+00 4.4164817499021778e+00 7.6708176656958127e+00 0 0 0
225 2 -4.9166840179054988e-01 2.9893301130650949e+00 3.2187900675762506e+00 9.4849034910327923e+00 0 0 0
224 2 -5.0863847949195640e-01 4.6701860986587274e-01 3.1755664422682606e+00 9.4359886676904825e+00 0 0 0
223 2 -4.8252052600531786e-01 1.7594088098285814e+00 1.8972861286114118e+00 7.6605313588294033e+00 0 0 0
222 1 5.9216525108677598e-01 4.5218467906549336e+00 6.1265806543494126e+00 8.5867254655158529e+00 0 0 0
221 1 6.9280478301738591e-01 2.7900327877430409e-01 2.9947247692600447e+00 7.5354869549750019e+00 0 0 0
220 1 6.9608073195608455e-01 3.2198322960345385e+00 3.2149243167016230e+00 7.6075289402086845e+00 0 0 0
216 1 6.9270180742102649e-01 7.6771026485478675e+00 1.8357140513463552e+00 9.7792764894069215e+00 0 0 0
213 2 -4.8699906633018164e-01 6.2543443822227749e+00 3.2623626619996277e-01 9.7377234407903810e+00 0 0 0
211 1 5.9087032047950283e-01 7.6056294196372818e+00 1.9945948464884639e-01 6.4628603540855103e+00 0 0 0
209 1 6.9319083794740000e-01 1.7840256801853764e+00 1.8679175511362900e+00 9.7559817916050022e+00 0 0 0
207 2 -5.1029229691308220e-01 2.9324134778942814e+00 2.9157562669230008e-01 9.6891387959793729e+00 0 0 0
206 2 -5.0273082305055239e-01 4.1811055234040273e-01 3.1479585753381706e-01 9.6762023187829858e+00 0 0 0
205 2 -5.0278684173720323e-01 4.6187513715248416e+00 1.8828831703269930e+00 7.4155837886267619e+00 0 0 0
204 1 5.9373118258038737e-01 1.7787125451120414e+00 1.9788570553212484e-01 6.3835589662341494e+00 0 0 0
203 1 5.9496191215099770e-01 4.5686669891861857e+00 3.0074667404507860e-01 8.5774355849360315e+00 0 0 0
250 2 -5.0426053288771089e-01 8.7473979424036621e+00 6.0670246055145345e+00 9.7521848483940268e+00 0 0 0
657 1 6.8743601042817104e-01 7.5932019369014965e+00 7.3006589971070728e+00 1.7877798231423252e+01 0 0 0
656 2 -3.8903002185198754e-01 8.0482914437723583e+00 7.0474231103836615e+00 1.9603554995326373e+01 0 0 0
654 2 -4.4260151668381842e-01 6.4717342257417352e+00 5.8710393018226901e+00 1.6864410741022617e+01 0 0 0
653 2 -3.9241080501087100e-01 7.7298403225176422e+00 4.8483017309796361e+00 1.9681250543062660e+01 0 0 0
652 1 6.6864206124219561e-01 7.2556565794513652e+00 4.4670219380303795e+00 1.7976815466207416e+01 0 0 0
649 2 -5.0789099248936931e-01 6.0790919640343972e+00 2.9335249621977391e+00 1.7746029410278130e+01 0 0 0
646 2 -4.3865660410048107e-01 5.0739074650243507e+00 6.7734845221473448e+00 1.9262218539943280e+01 0 0 0
643 2 -3.9971901547900124e-01 4.5473980680521633e+00 4.1628363035769764e+00 2.0018009129143262e+01 0 0 0
642 1 6.8486219402926340e-01 3.6223250853876894e+00 5.7133523726558897e+00 1.9556546296986397e+01 0 0 0
231 2 -4.8126554227571150e-01 1.6679410296391224e+00 4.7440635548661616e+00 1.1537974440078788e+01 0 0 0
640 1 6.1885929794387518e-01 4.4533034409663266e+00 2.7171270519308903e+00 1.8776834506632408e+01 0 0 0
639 1 6.8837364001328027e-01 1.3331750401968836e+00 7.1662924431296977e+00 1.8006021805859497e+01 0 0 0
638 2 -3.8783985019397055e-01 2.0036089134570751e+00 6.9058366628991923e+00 1.9695723530088287e+01 0 0 0
637 2 -4.4107904708315021e-01 2.8914273516115663e+00 5.7204227754896486e+00 1.7908402826791221e+01 0 0 0
636 2 -4.0696171837128053e-01 5.7032365207691360e-01 5.7500457790709678e+00 1.6909931329131403e+01 0 0 0
635 2 -3.8136971791983776e-01 1.9071820236765074e+00 4.6700210511447260e+00 1.9805853584496635e+01 0 0 0
633 1 6.7133450487386681e-01 1.2604874864744164e+00 4.1932638883121909e+00 1.8097141243868979e+01 0 0 0
215 2 -5.0683980378142413e-01 7.5178102991383788e+00 1.4806496121576711e+00 1.1582318196333679e+01 0 0 0
630 2 -4.2440372532732495e-01 2.6616916304199361e+00 2.6656119883536200e+00 1.7722550646835650e+01 0 0 0
629 2 -4.1050293252740999e-01 2.5118693188671143e-01 2.5265381113303853e+00 1.7488597893684119e+01 0 0 0
619 1 6.8773335198012198e-01 7.2076225751028566e+00 1.5032799863056014e+00 1.7974262758570710e+01 0 0 0
618 2 -4.1902574191747771e-01 6.9398468708179708e+00 1.1958986865103902e+00 2.0068360969697892e+01 0 0 0
616 2 -4.6169296982237140e-01 6.0572063566464198e+00 3.2657537653275658e-03 1.8053953277607981e+01 0 0 0
614 2 -4.5640751791170553e-01 4.1744278650281164e+00 9.5814266069056242e-01 1.8965729212957378e+01 0 0 0
234 2 -4.9261201578199088e-01 1.7131507076541803e+00 7.2959936879585525e+00 1.1635525255061074e+01 0 0 0
464 1 6.9773602427171477e-01 1.8789891161878708e-01 8.6808985225241653e+00 1.5716505383141884e+01 0 0 0
609 1 6.9106964363885692e-01 1.4500529554899102e+00 6.6106101507142845e-01 1.7321514694363586e+01 0 0 0
608 2 -3.9364787201387519e-01 1.0222778672234543e+00 9.1499400805315734e-01 1.9131480551616992e+01 0 0 0
611 1 6.6143814804609224e-01 2.5665175218204990e+00 6.4437430937733098e-01 2.0173679025788527e+01 0 0 0
475 1 6.9383162884457605e-01 6.0489442422607977e+00 8.6803435611943787e+00 1.5797187061621910e+01 0 0 0
208 2 -5.0559167475150513e-01 1.6579571549264540e+00 1.4583576865708181e+00 1.1519735563850556e+01 0 0 0
448 2 -4.6506154368899233e-01 7.5399599465871008e+00 7.6015873538333727e+00 1.5945289935186597e+01 0 0 0
446 1 6.1380351308634729e-01 7.3538773261165957e+00 5.8176979694492497e+00 1.5012834491422520e+01 0 0 0
441 2 -4.7465734326247344e-01 7.3953932674742422e+00 4.0983059896296750e+00 1.5999828672897612e+01 0 0 0
431 1 5.9180787968485304e-01 7.4106825103879030e+00 3.0262664493043872e+00 1.2730420483487187e+01 0 0 0
430 1 6.9069013877681651e-01 5.9227112211796440e+00 2.9920500411124435e+00 1.5799903056535413e+01 0 0 0
429 2 -5.0263772990764832e-01 4.4925875456306512e+00 7.5466752957110215e+00 1.5612329627326986e+01 0 0 0
428 2 -4.6433846611736740e-01 1.5951693915095642e+00 7.5222011371536190e+00 1.6031169357139589e+01 0 0 0
427 1 6.8941987212964306e-01 4.3982511690257189e+00 7.4603199326266827e+00 1.3682055441632757e+01 0 0 0
426 1 6.1313232998908085e-01 1.5150357944116863e+00 5.7866332025996243e+00 1.5081121043143373e+01 0 0 0
425 1 6.9376445171703527e-01 4.3962542805514495e+00 4.4748911491385019e+00 1.3778956657155437e+01 0 0 0
424 2 -5.0151225854160786e-01 4.4225514315526677e+00 4.2107547096578832e+00 1.5627167537961270e+01 0 0 0
423 2 -4.8825299524611282e-01 5.7156636602145205e+00 3.0156910608326699e+00 1.3899780471707532e+01 0 0 0
422 2 -4.9373430439273897e-01 3.1798166621912594e+00 3.0030075470444686e+00 1.3930274003840777e+01 0 0 0
421 2 -4.5267854348371106e-01 1.5347427585317288e+00 4.0017271181197192e+00 1.6060461920098632e+01 0 0 0
420 1 6.0558074409527685e-01 4.4706655101885495e+00 5.8790814842466661e+00 1.6555692257407880e+01 0 0 0
419 1 6.9810957656235662e-01 9.6107392064856051e-02 2.8328452070288157e+00 1.5733415163803080e+01 0 0 0
418 1 6.9287650503771203e-01 2.9834847094239256e+00 2.9416246649150866e+00 1.5947036909885940e+01 0 0 0
417 2 -4.9506091495587112e-01 4.6304155627235941e+00 7.2142434046584700e+00 1.1870159475379250e+01 0 0 0
416 2 -4.8295047828402637e-01 5.7513259945981128e+00 5.9117607830664189e+00 1.3709409358446177e+01 0 0 0
415 2 -4.7485162638421802e-01 3.2158462124454497e+00 5.9001258854973386e+00 1.3700221341895903e+01 0 0 0
414 2 -5.0247671963554241e-01 4.6340761326149229e+00 4.7105295726888308e+00 1.1855118359099425e+01 0 0 0
413 1 6.8234940506342034e-01 3.2732181507333111e+00 5.8610637843874258e+00 1.1516728313726100e+01 0 0 0
412 1 6.9073036827585899e-01 6.1837810730877116e+00 5.9661631708395415e+00 1.1913380267362264e+01 0 0 0
675 2 -4.4717931398828792e-01 2.8204856455395255e+00 8.6843652812268495e+00 1.7743156732281978e+01 0 0 0
694 2 -4.8229514543069207e-01 6.2976237101509849e+00 8.7449233824112493e+00 1.7651220479717249e+01 0 0 0
408 1 6.8975603278120134e-01 3.5235843351120022e-01 5.9877865513764821e+00 1.1868721245691184e+01 0 0 0
407 1 5.9409327272057044e-01 1.5644831018064478e+00 3.0093870765052859e+00 1.2750132930026970e+01 0 0 0
404 2 -4.7772035155607911e-01 7.3910053829805733e+00 1.6565903354800458e+00 1.5967171982191044e+01 0 0 0
685 1 6.1162907107851916e-01 4.7008194865064876e+00 8.7053939410526091e+00 1.8658718175453547e+01 0 0 0
395 2 -4.9817049367494254e-01 4.4690503184833457e+00 1.7780192589959436e+00 1.5724145906161693e+01 0 0 0
394 2 -4.7655594852048899e-01 1.5495311872979221e+00 1.5747464179824073e+00 1.5710794139036855e+01 0 0 0
393 1 6.9081075623339527e-01 4.4037647597896727e+00 1.5949019991870192e+00 1.3723233981981462e+01 0 0 0
392 1 6.3058581445966133e-01 1.5921636259313936e+00 2.3093092544034990e-01 1.4275107914219472e+01 0 0 0
391 1 6.3313543516011506e-01 4.5600387917255913e+00 2.1292916413417926e-01 1.6984507290942318e+01 0 0 0
390 2 -4.9717373460427933e-01 4.5906455870596323e+00 1.4522781087877459e+00 1.1783884848441719e+01 0 0 0
389 2 -4.8747842989453888e-01 5.8225381517272199e+00 1.2527380634584520e-01 1.3569866037378034e+01 0 0 0
388 2 -5.1806472854453633e-01 3.2865811954404545e+00 1.6355328594019974e-01 1.3401298387577848e+01 0 0 0
387 1 6.9974957826823514e-01 3.1642922779887108e+00 8.0015764241042009e-02 1.1525545416494589e+01 0 0 0
386 1 7.0119636414617703e-01 6.0470197585916781e+00 3.1319020195223357e-01 1.1665107901332158e+01 0 0 0
621 1 6.7816027726680317e-01 8.6352061322911364e+00 2.8334540641307743e-01 2.0103723506251335e+01 0 0 0
384 1 7.0555494274835007e-01 1.8713349766717080e-01 1.9374422309391809e-01 1.1531613886319697e+01 0 0 0
251 2 -4.9168245197415233e-01 7.5496379557298177e+00 7.2618235521078480e+00 1.1643787160899208e+01 0 0 0
248 2 -4.8708980344011243e-01 7.4877470855498851e+00 4.7243969978324074e+00 1.1542631406652243e+01 0 0 0
650 2 -4.5882451514615025e-01 8.5696670277929936e+00 2.8955298034388641e+00 1.7741074108985234e+01 0 0 0
617 2 -4.7122148140039427e-01 8.3593613636603621e+00 6.1413523155459136e-02 1.8033169964966245e+01 0 0 0
463 1 6.9248005606341767e-01 3.0869587411239285e+00 8.6833969788252787e+00 1.5969652313435104e+01 0 0 0
2135 2 -3.7520158980730511e-01 1.8693034993213586e+00 6.9200530476869453e+00 2.2300996335130066e+01 0 0 0
2132 2 -3.8500122695702588e-01 5.6381260845941163e+00 7.7345755229234747e+00 2.1495640296144192e+01 0 0 0
2131 2 -3.7301856794055216e-01 7.6895735457787673e+00 6.9573706996206219e+00 2.2158946921644862e+01 0 0 0
2127 2 -3.9003442883481065e-01 6.3898816430915861e+00 4.5973177682717372e+00 2.1945000664027674e+01 0 0 0
2126 1 6.4959187790093931e-01 3.8586563162961531e+00 7.3188871207192960e+00 2.2295247857631573e+01 0 0 0
1259 1 6.8556749564507469e-01 1.2462817800649366e+00 3.5300758025319241e+00 2.9614292335091527e+01 0 0 0
2123 2 -4.6483435924557404e-01 6.9745522167416691e+00 7.4373663519384090e+00 2.4113891345643054e+01 0 0 0
2011 2 -5.0518259212813099e-01 7.0260551723921845e+00 8.7320226590051551e+00 2.6170897012106305e+01 0 0 0
1723 1 7.0767742850657500e-01 5.5014952647519992e+00 7.9928836579784219e+00 2.4973683400154652e+01 0 0 0
1721 1 7.0759274156270213e-01 2.5874733348637506e+00 7.9361344811892289e+00 2.5212315534485274e+01 0 0 0
1720 1 7.0918864077785992e-01 8.4320627435874655e+00 7.9601277779475073e+00 2.5091962088250561e+01 0 0 0
1716 1 6.3447495929308717e-01 7.1119958783737021e+00 5.5914423883737419e+00 2.3506053031518135e+01 0 0 0
1715 2 -4.3428200176306031e-01 2.8012608572787530e+00 1.6642098296133625e+00 2.1613815390527083e+01 0 0 0
1714 2 -3.7863979810620674e-01 5.1962382253997372e+00 2.3273748068296185e+00 2.1752216169205397e+01 0 0 0
1712 2 -4.0395951881575443e-01 3.7558774851719208e+00 5.7087537819748855e+00 2.1470986169563492e+01 0 0 0
1711 2 -5.0120865382128355e-01 4.0292172902056453e+00 7.1777629132578564e+00 2.4199432245209298e+01 0 0 0
1710 1 6.5667900858063288e-01 4.2412281626577046e+00 8.4939772013449666e-01 2.2835385087640923e+01 0 0 0
1707 1 6.9256385751995564e-01 2.7582512648805886e+00 2.9749346650262694e+00 2.4981560635116566e+01 0 0 0
1706 1 6.7436416897636708e-01 4.4072884307067879e+00 4.0572713409615577e+00 2.2246537038436539e+01 0 0 0
1705 2 -4.3638843569513469e-01 4.2199030662057195e+00 2.5853743343650732e+00 2.3746081086398874e+01 0 0 0
1704 2 -4.7115815591618870e-01 2.9847020573446135e+00 4.5605279289661871e+00 2.3901349884462039e+01 0 0 0
1702 2 -4.6328735089521317e-01 5.4534937621030037e+00 4.6203386146975340e+00 2.3942791472765592e+01 0 0 0
1701 2 -5.2119185867070295e-01 4.2183056224583551e+00 3.7405451335864588e+00 2.5853999641987450e+01 0 0 0
1700 1 7.0212367122845798e-01 4.1775045310076386e+00 5.4426143588654803e+00 2.4966499297616235e+01 0 0 0
1699 1 6.2702480172520780e-01 7.0487263298657785e+00 2.4489745853231599e+00 2.1815253424336660e+01 0 0 0
1697 1 6.9562174099266905e-01 8.6131108456330665e+00 2.9320118518222276e+00 2.4514327547080502e+01 0 0 0
1696 1 6.9405094663214106e-01 5.7439811577148419e+00 3.0071296977811532e+00 2.4882041620538939e+01 0 0 0
1695 2 -4.7538845452084172e-01 7.1394057233930122e+00 2.2158948558086276e+00 2.3720118284297257e+01 0 0 0
1694 2 -4.6900178831189038e-01 7.2284146313314324e+00 3.4590313320246118e+00 2.5910471690585677e+01 0 0 0
1373 1 6.6614683702638966e-01 6.9119294515396854e+00 3.5645978571890748e+00 2.9319193865077850e+01 0 0 0
1422 2 -4.9942560180591283e-01 4.2203667053482556e+00 1.3980727922686426e-02 2.7558786211329451e+01 0 0 0
1660 1 6.0187686762968939e-01 7.1240572200284857e+00 8.6505491905068848e+00 2.8172774456565040e+01 0 0 0
1659 2 -4.9042966206352445e-01 2.8968597448113624e+00 6.3135199857956454e+00 2.6176602121280528e+01 0 0 0
1656 2 -5.0942144839813863e-01 5.4327774468750043e+00 6.3705859741934550e+00 2.6090287529183847e+01 0 0 0
1655 2 -5.1038619406254249e-01 4.1019697302145861e+00 8.5155531518231928e+00 2.6230578785989074e+01 0 0 0
1652 1 5.9203872505327237e-01 4.1963432873050399e+00 3.7452951798462890e+00 2.7730729504548687e+01 0 0 0
1649 1 6.9804694233308084e-01 4.3604976248205727e+00 7.0831730039856637e+00 2.7418545241609742e+01 0 0 0
1648 2 -5.0240631567426863e-01 4.2256605362809747e+00 5.5565715098821569e+00 2.8570896180138739e+01 0 0 0
1647 2 -4.8753089598537025e-01 2.9327296402448755e+00 7.7069139421106243e+00 2.8695798946747942e+01 0 0 0
1645 2 -4.9519724499236395e-01 5.4581126871111838e+00 7.7069217985121874e+00 2.8763683236725349e+01 0 0 0
1641 1 5.8904600204604962e-01 7.0938680850965659e+00 5.4372981642486531e+00 2.6672091800995169e+01 0 0 0
1638 2 -4.9126084681644516e-01 7.0650022931923440e+00 5.2982414369456432e+00 2.8654541281901601e+01 0 0 0
1633 2 -5.0892593310388290e-01 8.7117716101401381e+00 6.3731843418440990e+00 2.6095810044508674e+01 0 0 0
1651 1 6.9615551717896973e-01 2.7372907086618605e+00 6.0273792132872952e+00 2.9538038319219755e+01 0 0 0
1439 2 -4.7601748820413697e-01 2.5199793466226894e+00 1.2859297437861485e+00 2.5800229820786537e+01 0 0 0
1437 2 -4.7609245442084519e-01 6.0321423891704455e+00 1.3379091821455797e+00 2.5668487851482809e+01 0 0 0
1435 2 -4.8166649898824127e-01 8.4413551777686600e+00 1.3059012912614774e+00 2.5518760433093817e+01 0 0 0
1429 1 6.9181018970584840e-01 7.1115410408844983e+00 4.0600702280942180e-01 2.4373111871382029e+01 0 0 0
1426 1 6.2681489298751403e-01 4.2661919753529647e+00 5.5554221550642113e-01 2.5915164520789709e+01 0 0 0
1424 1 6.5042514711725674e-01 7.5017104957885934e+00 1.7215465574561701e+00 2.7116694298177734e+01 0 0 0
632 1 6.6770282626450661e-01 8.1295125531443491e-01 5.9649901425433232e+00 2.0849718806335364e+01 0 0 0
1420 2 -4.4787315825557161e-01 7.1123507592655466e+00 6.7149329242274081e-01 2.8817102050866648e+01 0 0 0
1389 2 -4.6314790177769505e-01 2.5923419845946620e+00 2.5327464290451180e+00 2.8613133525726180e+01 0 0 0
1376 2 -5.1197337971585732e-01 5.7509341475544842e+00 2.6343144340607285e+00 2.8260062070400505e+01 0 0 0
1375 2 -4.9703847975698967e-01 8.3718637788251549e+00 2.6308872579822737e+00 2.8541657909723078e+01 0 0 0
1250 2 -4.3548117288334059e-01 1.2663490542304963e+00 5.7545173001481942e-01 2.9195914140277946e+01 0 0 0
1247 1 6.4346827882261814e-01 1.2892812562946718e+00 1.5884561648393125e+00 2.7396141886829284e+01 0 0 0
1244 1 6.9062447790468451e-01 1.3172255121452960e+00 3.9393849117245727e-01 2.4535773626791336e+01 0 0 0
1178 2 -5.2437202748945566e-01 1.2530515226777543e+00 5.2367822513630768e+00 2.8742700913242235e+01 0 0 0
1175 1 5.8300291363880319e-01 1.2192143327768339e+00 5.2836253134817710e+00 2.6851505779159318e+01 0 0 0
1172 1 6.0288257802705603e-01 1.2331482113761856e+00 8.6862888862721359e+00 2.8095092040598715e+01 0 0 0
1166 2 -4.8793640209320782e-01 1.2971578188487984e+00 3.3841047373767297e+00 2.6179798867712083e+01 0 0 0
1163 2 -4.7693367507480355e-01 1.3491925125730364e+00 2.2712551411202075e+00 2.4026487431559062e+01 0 0 0
1160 1 6.3230505379831337e-01 1.4277282777764624e+00 2.6827054677308775e+00 2.2251906399203918e+01 0 0 0
1157 1 6.4073293754428873e-01 1.2845441429920017e+00 5.5514436242804273e+00 2.3722340704749030e+01 0 0 0
1055 2 -5.1280004849363692e-01 1.1655190937250479e+00 8.7205383229826321e+00 2.6154195970044839e+01 0 0 0
1046 2 -4.5935054967773381e-01 1.1250617021340610e+00 7.4129765175427575e+00 2.4216517099913645e+01 0 0 0
1472 2 -4.7915660468546395e-01 9.2460424346710202e-02 1.2756310184919164e+00 2.5794262897829817e+01 1 0 0
1038 2 -4.1965625929161759e-01 6.6661942656820428e-01 4.5428339679584537e+00 2.2223971496831375e+01 0 0 0
1385 1 6.5140277754097775e-01 5.2044150646612914e+00 1.0386748078030175e+00 2.8892046384709893e+01 0 0 0
1640 1 6.9883727777383242e-01 8.5255962442992264e+00 6.1142538273944531e+00 2.9635064912603422e+01 0 0 0
641 1 6.5876231910010652e-01 6.5976997643231456e+00 6.2125437315543381e+00 2.0572669641167817e+01 0 0 0
1221 2 -6.0538989963786716e-01 7.1429925902189284e+00 2.0391570230564193e+00 3.8314333619587671e+01 0 0 0
1644 2 -5.0897921926041501e-01 4.1855608188601741e+00 6.9097174773882397e+00 3.0703956386495275e+01 0 0 0
1226 2 -5.4514525165252592e-01 5.5475954743892162e+00 4.3954197547640765e+00 3.8187701060531985e+01 0 0 0
1222 1 4.6248483062743179e-01 5.7597681048073284e+00 2.8444514111785271e+00 3.9123022514352868e+01 0 0 0
1223 1 4.6542776152506049e-01 8.5530871505621722e+00 2.7911256225106498e+00 3.9157855467442495e+01 0 0 0
1637 2 -4.8625046471065020e-01 7.1255034225452878e+00 6.6685903364727102e+00 3.0818736691187500e+01 0 0 0
1593 1 6.0051680150917686e-01 4.2178841078635179e+00 6.8965803232740770e+00 3.2670125229281922e+01 0 0 0
1639 1 6.9780636305806987e-01 5.6398742435747291e+00 6.1313201383223230e+00 2.9867551864685101e+01 0 0 0
1583 1 5.9634970374145568e-01 7.1099269395299087e+00 8.6466436603937300e+00 3.1512481581849876e+01 0 0 0
1579 2 -5.1827359819758190e-01 7.1515289760632346e+00 8.5376098077528457e+00 3.3431515726433688e+01 0 0 0
1392 2 -4.8859411696165006e-01 2.5877091825824476e+00 4.5233472645719841e+00 3.0714798505496081e+01 0 0 0
1388 2 -5.0902921865037554e-01 5.8963351513568591e+00 4.4563458613805960e+00 3.0703834964943646e+01 0 0 0
1386 2 -5.1200070093159200e-01 8.3204749891184289e+00 4.5337680274545136e+00 3.0578994485831863e+01 0 0 0
1193 2 -5.0605701279379123e-01 1.2964771853581560e+00 8.6024470549473193e+00 3.3454035888278035e+01 0 0 0
1482 2 -5.0516517619263268e-01 6.2669835383971126e-02 5.9923983789961976e+00 3.3284859615238851e+01 1 0 0
1381 1 6.4250892491242517e-01 7.1668918217420226e+00 2.1426477689762971e+00 3.3336489967405001e+01 0 0 0
1379 2 -5.1269274485911587e-01 4.4211876964798469e+00 1.6554180498171271e+00 3.0688364411550630e+01 0 0 0
1374 2 -4.5061635859060872e-01 6.8658591152171695e+00 1.7812109878420843e+00 3.1459743548114719e+01 0 0 0
1224 1 5.4491313749576875e-01 7.1189361857723030e+00 2.4021623016707645e+00 3.6414782644545859e+01 0 0 0
1370 1 5.9337050486456322e-01 4.3361172091048736e+00 3.6021969345714320e+00 3.1383190455886602e+01 0 0 0
1369 1 6.8648296544766807e-01 7.2141232870125753e+00 4.9237496058617420e+00 3.1995822010266043e+01 0 0 0
1368 2 -4.8218486053687720e-01 4.2716460078926488e+00 3.5063110129257842e+00 3.3431657896177896e+01 0 0 0
1366 2 -5.4024492600326879e-01 7.1808361676278318e+00 3.8262235239338382e+00 3.3534743667634913e+01 0 0 0
1220 1 5.1797649160239090e-01 7.1534794956068097e+00 2.6287560755127859e-01 3.8487148746041875e+01 0 0 0
1181 2 -4.9053659570080793e-01 1.2906185032955877e+00 6.7335353733265659e+00 3.0762949571499576e+01 0 0 0
1340 2 -4.8726287637746812e-01 2.5932386275747650e+00 7.8845857834435567e+00 3.5511200250912317e+01 0 0 0
1339 2 -5.0618303847538626e-01 2.6008124446211931e+00 6.0059181380199833e+00 3.3292549324916600e+01 0 0 0
1337 2 -4.8834844260374377e-01 5.9100733557077625e+00 7.7867009566983585e+00 3.5491837527549762e+01 0 0 0
1336 2 -6.1902139174097759e-01 1.3230180020717275e+00 1.9847167543819646e+00 3.7930247300670345e+01 0 0 0
1335 2 -4.7876521267237060e-01 8.4584526001004896e+00 7.7614737810451446e+00 3.5511458172725973e+01 0 0 0
1333 1 5.7140721227064306e-01 1.3498880918290501e+00 2.4921248736073700e+00 3.6080095621992776e+01 0 0 0
1332 1 7.0254138278674261e-01 5.6895226245448161e+00 4.4588573003036132e+00 3.4500724409789271e+01 0 0 0
1331 1 7.0237169431707958e-01 2.8550208851329399e+00 4.4870262884369989e+00 3.4350638762604525e+01 0 0 0
1329 1 5.7200774121078024e-01 7.2105854242244156e+00 5.2846752286818326e+00 3.7482358296620177e+01 0 0 0
1328 2 -4.9760641412464979e-01 3.0112816558027422e+00 2.9818497453377155e+00 3.5466760228687704e+01 0 0 0
1326 2 -4.9023871131537211e-01 5.4396024307178044e+00 2.9488799692228080e+00 3.5593245608489610e+01 0 0 0
1325 2 -5.0199353236514033e-01 4.2411709740790675e+00 5.0879324505650478e+00 3.5525243522507090e+01 0 0 0
1323 2 -4.8872059491012615e-01 5.9127156461293051e+00 5.8887045771222359e+00 3.3273204837020920e+01 0 0 0
1322 2 -4.8993447038533633e-01 8.4381605644155826e+00 5.8602933256335259e+00 3.3272866768659938e+01 0 0 0
1320 2 -4.7031599769864596e-01 7.2131847013344199e+00 5.2355477332714111e+00 3.5421521195882171e+01 0 0 0
1319 1 6.9889672133349545e-01 7.2162951044022270e+00 6.8658357221950892e+00 3.4219239630087081e+01 0 0 0
1316 1 6.0243438942432426e-01 4.2355212792491468e+00 6.9615989301767396e+00 3.6185319652419487e+01 0 0 0
1315 1 6.8849183497705768e-01 7.1649341268737103e+00 8.3838717666329625e+00 3.6783655405885391e+01 0 0 0
1313 2 -6.1122241636505703e-01 4.2904280018227139e+00 7.0101559263912954e+00 3.8267258103802995e+01 0 0 0
1312 2 -5.7299765059370755e-01 7.2475720872183995e+00 7.1030024827426654e+00 3.8158443851831969e+01 0 0 0
1310 1 6.9516317316048970e-01 8.6953526364065539e+00 4.3718532190345334e+00 3.4501858956733912e+01 0 0 0
1243 2 -5.3169111093118138e-01 4.4843886398665465e+00 2.9726243279193659e-01 3.5517736143650410e+01 0 0 0
1283 1 4.7192068552072342e-01 5.7617874987798281e+00 7.7772320707026887e+00 3.8920624873679550e+01 0 0 0
1281 1 4.7317283300048035e-01 2.9482272631151747e+00 7.8924500978720458e+00 3.8913505973901003e+01 0 0 0
1280 2 -5.5673255056447291e-01 1.4149929858628205e+00 7.2052024962599717e+00 3.8119973239354145e+01 0 0 0
1342 1 5.0221941213607557e-01 1.2970357344331587e+00 2.4377628313576535e-01 3.7685493399226317e+01 0 0 0
1274 1 7.0465945492662496e-01 1.2884172054000462e+00 6.9263850932569211e+00 3.4438291711862284e+01 0 0 0
1271 2 -4.8568738436632047e-01 1.3433108292602427e+00 5.3012743956757591e+00 3.5319696102352978e+01 0 0 0
1268 1 5.7444645361680113e-01 1.3774179531902753e+00 5.3267848563180262e+00 3.7324821288882831e+01 0 0 0