LAMMPS data file via write_data, version 7 Aug 2019, timestep = 10000

2577 atoms
2 atom types

0.0000000000000000e+00 1.8560400000000001e+01 xlo xhi
0.0000000000000000e+00 4.2399999999999999e+01 ylo yhi
-1.1426533308723298e-01 4.1566599750557472e+01 zlo zhi

Masses

1 55.847
2 15.9994

Atoms # charge

7 1 7.7458767898806291e-01 2.2402961241132933e+00 1.1932999162562961e+00 3.3167294562156457e+00 0 0 0
52 1 7.2600093840900093e-01 1.6725478179310311e+00 4.6057718839111512e+00 1.5899063674145975e+00 0 0 0
106 2 -6.1490730604079757e-01 1.0251632225877996e+00 4.5598102086017489e+00 3.4899721574893170e+00 0 0 0
124 2 -4.7866693294665780e-01 4.7982049592341935e+00 2.7072347183092207e+00 3.4630266974117757e-01 0 0 0
205 2 -6.8597291954656148e-01 8.4892103735310781e-02 9.0266029865288655e-01 3.0113314385651968e+00 0 0 0
223 1 8.7833915659502915e-01 4.6729434147633402e+00 4.2523105924011277e+00 1.6218125290576089e+00 0 0 0
241 2 -7.9033692946644130e-01 4.5064194300388625e+00 4.0372685335042604e+00 3.5628834836721270e+00 0 0 0
259 2 -7.5083232740731209e-01 3.3569206722421003e+00 1.6207118867819601e+00 4.2788754739537289e+00 0 0 0
277 1 9.3545224198878685e-01 4.9999672238182242e+00 2.6155206047198423e+00 3.9582520300848589e+00 0 0 0
358 1 8.8320538803685600e-01 5.9160663053766687e+00 1.1538412661834725e+00 9.0241560587167657e-01 0 0 0
178 2 -6.4906255088396092e-01 3.1223267406147581e+00 4.9271805551769328e+00 8.7558123784629405e-01 0 0 0
1006 1 7.2859632748115888e-01 1.7913266265580496e+01 1.2442273935788477e+00 1.0970772925865988e+00 0 0 0
529 2 -7.0369868318103734e-01 6.1516666617432785e+00 1.4800076781377862e+00 3.1217427252193692e+00 0 0 0
412 2 -5.3975637033091128e-01 7.4121438581010635e+00 1.7764345750069903e+00 -1.1006291601508637e-01 0 0 0
331 1 9.2497792989598737e-01 8.8533570999682016e+00 1.9784223866012731e+00 8.6301668785344765e-01 0 0 0
376 1 9.0707039276927537e-01 7.6699175763478271e+00 4.2286616258781136e+00 2.0917733301861103e+00 0 0 0
430 2 -6.7831349208475800e-01 6.9706746631043099e+00 3.9489391104656488e+00 3.8144891701931853e+00 0 0 0
448 2 -7.3642646059343231e-01 8.8684807203441292e+00 3.1865821339271725e+00 1.8503016555687215e+00 0 0 0
547 1 9.9194736251058824e-01 1.0755846566896746e+01 4.3068529837360332e+00 1.8756450428989684e+00 0 0 0
565 2 -7.7440204784562994e-01 1.0909456203575878e+01 4.2833931192388990e+00 3.3329071171940789e+00 0 0 0
583 2 -5.4693894219628825e-01 1.0609662398089604e+01 1.3401072038680726e+00 3.8623395259866902e+00 0 0 0
601 1 8.8555018927506279e-01 1.1987535615228312e+01 2.7852507950746919e+00 3.9175572293646681e+00 0 0 0
736 2 -7.5641269890530960e-01 1.2435061041310451e+01 2.8585198660756812e+00 1.7728446970497775e+00 0 0 0
682 1 8.8384474253654421e-01 1.2077358851028416e+01 1.6865964284506982e+00 8.8768425092414327e-01 0 0 0
2106 2 -5.8896515887758949e-01 1.0653042128629238e+01 1.4202756899499798e+00 1.8432667073896089e-01 0 1 0
1060 2 -6.3848379967345414e-01 1.7807362523324464e+01 2.8472997197523195e+00 1.7152032125401275e+00 0 0 0
925 1 9.2827133584911559e-01 1.7766205376367576e+01 2.6720222231999147e+00 3.8003387435584557e+00 0 0 0
655 1 7.1321172043397119e-01 1.4988432771143266e+01 1.3589596851299917e+00 3.6716921339893025e+00 0 0 0
700 1 1.0067367819815511e+00 1.3858204689684564e+01 4.1007765093698723e+00 1.7240339595274927e+00 0 0 0
754 2 -6.1633048498218101e-01 1.3290137092473532e+01 4.1322126056170463e+00 3.5613000280068206e+00 0 0 0
772 2 -6.9506740163826264e-01 1.5135826602206444e+01 3.6981681141164091e+00 1.1605449826581755e+00 0 0 0
853 2 -6.7401817549741383e-01 1.3322421307078015e+01 1.0306342039107714e+00 4.2211824510407503e+00 0 0 0
871 1 8.8550486380923377e-01 1.6685134644876438e+01 4.5912339311723560e+00 1.6197953093819257e+00 0 0 0
889 2 -7.5679224847004467e-01 1.7155022731489812e+01 4.7625267166992922e+00 3.4887641764531625e+00 0 0 0
907 2 -7.5351918169635890e-01 1.6651601098053987e+01 1.9402768682280160e+00 4.4692539104860218e+00 0 0 0
826 2 -5.8069868532443669e-01 1.5071269076633795e+01 5.9529791723755086e+00 1.7655368335646613e+00 0 0 0
313 1 8.0249177977484976e-01 5.8601733246390078e+00 5.4192425414387335e+00 3.9996069178010951e+00 0 0 0
2014 2 -7.4309028136895261e-01 5.9346652182630555e+00 8.4161533672034885e+00 1.8974972257763389e+00 0 0 0
1960 1 6.5544664695349697e-01 5.9891159736935622e+00 6.7437519095645992e+00 1.0385161368931088e+00 0 0 0
1888 1 1.0717496380521163e+00 5.5813065076340829e+00 8.4715597573868120e+00 4.0836657868102639e+00 0 0 0
1870 2 -7.0504373661892683e-01 4.5015639927326792e+00 7.2328310384572054e+00 4.2986794835590683e+00 0 0 0
1852 2 -8.4864068593000608e-01 5.2829127568761356e+00 9.8043453370690745e+00 3.7964176452149361e+00 0 0 0
1816 2 -6.2791773206102963e-01 7.1994590124110869e-01 7.3390551853894204e+00 4.1426665215320275e+00 0 0 0
1735 2 -6.9886588049099485e-01 2.4830653431831369e+00 8.5926133105479803e+00 2.0692521560975101e+00 0 0 0
1717 2 -5.9570779872737956e-01 9.4991380757752453e-01 1.0475611274323583e+01 3.8723358602930689e+00 0 0 0
1663 1 8.2766639387045482e-01 1.0343432142346409e+00 9.9606696967407693e+00 1.9274371042794514e+00 0 0 0
1627 1 7.3579745670299823e-01 2.4912607384411132e+00 7.4323570653863564e+00 3.0916266521493938e+00 0 0 0
466 2 -8.2115139900829826e-01 6.0839908464657153e+00 5.1041760587246463e+00 1.7502745317801724e+00 0 0 0
790 2 -7.5214102034120023e-01 1.2169897149406705e+01 5.3757382206191000e+00 1.2576665083644909e+00 0 0 0
502 2 -5.6253252210759563e-01 9.2564251207761821e+00 5.4115458954506312e+00 1.3542059833917111e+00 0 0 0
2185 2 -8.2683130878240674e-01 1.0389023459037125e+01 7.0527955978234278e+00 4.1392613183325819e+00 0 0 0
2167 2 -8.0347459180996028e-01 1.0336305751392551e+01 1.0105230925895857e+01 3.5042346590213072e+00 0 0 0
2149 1 9.2650200464225740e-01 1.0542365516467823e+01 9.5727558468741965e+00 1.7265007119829945e+00 0 0 0
2131 2 -7.1413699408193931e-01 7.0935296853401937e+00 7.1911671350545241e+00 4.6636232180270181e+00 0 0 0
2050 2 -6.7669196535000709e-01 9.0040644212470884e+00 8.3610872797315317e+00 1.9803866100362004e+00 0 0 0
2032 2 -7.2586513240769990e-01 7.8243137299361489e+00 1.0463891286215969e+01 3.6102666253432831e+00 0 0 0
1978 1 8.7388712315261940e-01 7.3984874559186649e+00 9.4548721555975348e+00 1.8437669387736988e+00 0 0 0
1942 1 8.1106680582444035e-01 9.1483708553152088e+00 7.2541934640670513e+00 3.1704062500754611e+00 0 0 0
2275 1 8.2283723065343872e-01 1.2108563020468900e+01 6.8376967161704512e+00 1.2875189814780266e+00 0 0 0
2203 1 8.6695159195032645e-01 1.1581384695944685e+01 8.7267604823671423e+00 4.1313544133182116e+00 0 0 0
2329 2 -8.0119410134398461e-01 1.1831108171649626e+01 8.3839666854608925e+00 2.0219598282387499e+00 0 0 0
637 1 8.5682337966501410e-01 1.1665174481485549e+01 5.6780980030926216e+00 4.2356430112038872e+00 0 0 0
1114 2 -6.6274229458674783e-01 1.8265782561615033e+01 5.9069348144042637e+00 1.0958708748955774e+00 0 0 0
2569 1 7.8249137519909973e-01 1.7857387160315092e+01 7.4730786004362963e+00 1.2843610918579720e+00 0 0 0
2530 2 -7.2399066398980771e-01 1.7880739654951089e+01 8.8299556960302148e+00 2.0109601195062368e+00 0 0 0
2518 1 9.8836813440699300e-01 1.7929626378621276e+01 8.8904321334960610e+00 4.2908351049842679e+00 0 0 0
2500 2 -7.0953372013972638e-01 1.6760521853432707e+01 7.4256171793086736e+00 4.1880205688664924e+00 0 0 0
2482 2 -6.8819612067579605e-01 1.7058375469878943e+01 1.0284599750921915e+01 3.6243800557927948e+00 0 0 0
2446 2 -6.5732258027198520e-01 1.3382291517059389e+01 7.1843201544638911e+00 4.4663616281062941e+00 0 0 0
2365 2 -7.2914788819541176e-01 1.4679651573752205e+01 8.6616328242616287e+00 2.0931505353208752e+00 0 0 0
2347 2 -5.7416663871138884e-01 1.2876787888746302e+01 1.0216132893815654e+01 4.0964109675109590e+00 0 0 0
2293 1 8.6438407343334278e-01 1.3400228220806635e+01 9.6231696251696697e+00 2.0267417086367852e+00 0 0 0
2257 1 8.5777406735928563e-01 1.5117228639153458e+01 7.3306317788322097e+00 3.1218753515342135e+00 0 0 0
961 1 9.7803475626051839e-01 1.7917017911625358e+01 5.8124692200693495e+00 4.0367849536419556e+00 0 0 0
2464 1 8.0714098125401679e-01 1.6301619871435260e+01 1.0127804495390921e+01 1.8000933519244100e+00 0 0 0
1834 1 8.1822200518857569e-01 4.4006982767295248e+00 9.7478889076134720e+00 1.8353811385152519e+00 0 0 0
2068 2 -5.2798289273861221e-01 5.6048871917068475e+00 1.0790812240163982e+01 9.4676337678207390e-01 0 0 0
2024 1 7.1589305670884784e-01 2.4157489333806352e+00 1.3007769278417250e+01 3.0006525143066964e+00 0 0 0
1924 1 8.5578222074368859e-01 5.6808013260099122e+00 1.1425905301691355e+01 3.9423639393146233e+00 0 0 0
1914 2 -5.2924172020882665e-01 2.3661089094943373e+00 1.5276416779409903e+01 1.2539442944088099e+00 0 0 0
1849 2 -6.8553952779303251e-01 7.6241618048672499e-01 1.3069065621841487e+01 4.0775787526071152e+00 0 0 0
1802 2 -6.5533443601180119e-01 4.1951185698177644e+00 1.2908089917376353e+01 4.0834115997007974e+00 0 0 0
1789 2 -5.1891711271281971e-01 2.8293330711534397e+00 1.1263650796826047e+01 1.6417482431519299e+00 0 0 0
1783 1 8.3222481644700896e-01 5.6765440219367305e+00 1.4495100292363164e+01 3.9690642275237833e+00 0 0 0
1678 2 -6.5446343289092623e-01 5.7488025456278438e+00 1.5190440688043738e+01 9.5026024056633318e-01 0 0 0
1729 1 6.8449625969201300e-01 5.6770371584036345e+00 1.3223368115271024e+01 1.1747386273495821e+00 0 0 0
1578 2 -7.2161842446671109e-01 6.5812984878427576e+00 1.2954096979564973e+01 2.8611785050567584e+00 0 0 0
2383 2 -4.9939968325613271e-01 1.1869259837765160e+01 1.1167896521505202e+01 9.8200050692584284e-01 0 0 0
2104 2 -4.7344789350688105e-01 8.9069999826555168e+00 1.0167607189576772e+01 7.7410656090348051e-01 0 0 0
1745 1 6.2669705389198316e-01 8.4184735896617031e+00 1.2764216633092831e+01 3.0270604647495012e+00 0 0 0
1651 2 -6.0541986947989079e-01 8.4795699394514887e+00 1.5429241442101382e+01 1.9977314699849733e+00 0 0 0
1533 2 -6.9875691916631633e-01 1.0730269247571201e+01 1.3325802716512909e+01 3.0188531631388238e+00 0 0 0
1517 1 1.0395873628935979e+00 1.1415911619359678e+01 1.4630157759744760e+01 4.0989437647748908e+00 0 0 0
1430 1 7.0661225329047794e-01 1.1357270327195932e+01 1.3499931946611953e+01 1.2249173229137125e+00 0 0 0
1369 2 -6.6825521201797555e-01 1.1332719691779486e+01 1.5386487928255454e+01 1.1352374243383763e+00 0 0 0
2239 1 7.9610886406167414e-01 1.1177535134889828e+01 1.1586281875103291e+01 4.2000297032686822e+00 0 0 0
1028 2 -6.4184113753301064e-01 1.8144147006781267e+01 1.4722514146873651e+01 2.1349508699521142e+00 0 0 0
1082 2 -7.1755358753487963e-01 1.5994012364426563e+01 1.4093140855027611e+01 1.6606108862152289e+00 0 0 0
1128 1 8.0746838625864270e-01 1.7356583806939565e+01 1.3580710484297681e+01 1.1146241538505486e+00 0 0 0
2554 1 9.7017872382928283e-01 1.8038801718090507e+01 1.1780963599538969e+01 4.1954922733390632e+00 0 0 0
2483 2 -5.3874911992980801e-01 1.8056422701202706e+01 1.1243780696535445e+01 1.0898029581149680e+00 0 0 0
2419 2 -6.2984908940528661e-01 1.4673864406021346e+01 1.1308541471137547e+01 1.7154816118789604e+00 0 0 0
1455 1 7.2323991294588663e-01 1.4525272764965727e+01 1.2935243088019721e+01 2.5166788081472187e+00 0 0 0
1190 1 8.7847115811504883e-01 1.8041109239883454e+01 1.4721804384641041e+01 3.9942594808260430e+00 0 0 0
1208 2 -6.0620065396229250e-01 1.6775515541104582e+01 1.3036546858267847e+01 4.5462638947778711e+00 0 0 0
1263 2 -5.4968826264451498e-01 1.2838048918505189e+01 1.3070846155604228e+01 3.9725838294402473e+00 0 0 0
1228 2 -6.5833294844461165e-01 1.6544050646567122e+01 1.6334351899515298e+01 4.0041914118671409e+00 0 0 0
1245 1 8.5827102497287699e-01 1.6007152280948237e+01 1.5914772890082366e+01 1.9317208652862083e+00 0 0 0
1813 2 -6.2378230441481197e-01 4.1895520946406251e+00 1.6094228049062391e+01 3.6211205151374135e+00 0 0 0
1993 1 8.9784015096478975e-01 8.4648157545414104e-01 1.6495993486674376e+01 1.7153993850782525e+00 0 0 0
1829 1 8.3903398858654676e-01 4.0438257541791929e+00 1.6259015222131762e+01 1.7558180029369250e+00 0 0 0
1925 2 -6.5369374224391830e-01 5.9727192636894555e-01 1.6672400981980026e+01 3.4261530181168602e+00 0 0 0
116 1 7.1250666549334596e-01 5.2186244162390523e+00 1.9073204417623934e+01 4.9364552160860303e-01 0 0 0
231 2 -5.8353840583065331e-01 4.1334146251406105e+00 1.9219940005006624e+01 4.2936862918612198e+00 0 0 0
520 1 7.0970666678781857e-01 2.0765348516973403e+00 1.9358963819025856e+01 1.7787397176350643e+00 0 0 0
1878 2 -6.2271833756133443e-01 2.5216022365055135e+00 1.7684182262847010e+01 1.7543085017720303e+00 0 0 0
1631 2 -7.1252032453584269e-01 5.5294236034303621e+00 1.7726281630548815e+01 1.5282309570630757e+00 0 0 0
1756 1 8.4172770655314921e-01 5.4867566361845324e+00 1.7770630132606868e+01 3.6789279736374532e+00 0 0 0
2504 1 8.6554818464838945e-01 7.6439103348376838e+00 1.6094308419992076e-01 3.1093234040801157e+01 0 0 0
293 2 -7.1711212939283642e-01 1.8409290580261370e+01 1.9370308092275156e+01 2.4590478158449094e+00 -1 0 0
744 1 8.0651238621471044e-01 1.2236577981764800e+01 1.1116196135546150e-01 3.6163119943165519e+01 0 0 0
1662 2 -6.4027438394300906e-01 6.6744219904866240e+00 1.6091669732034131e+01 3.4756292500224322e+00 0 0 0
1564 1 9.0718301369285748e-01 1.0085519098263568e+01 1.6285330365988042e+01 2.0466207734081165e+00 0 0 0
1713 1 9.1590608076208258e-01 7.0347602673272309e+00 1.6248440618870351e+01 1.5611034744718986e+00 0 0 0
1552 2 -7.6292425797934460e-01 1.0011596005910761e+01 1.5967126574444475e+01 4.0740187725540222e+00 0 0 0
103 2 -7.4874500427563662e-01 6.9741504545401884e+00 1.9258627398594701e+01 3.6449529480344776e+00 0 0 0
141 1 7.6547498011076642e-01 8.2162151664862453e+00 1.8845992495417939e+01 2.7050638817338033e+00 0 0 0
168 2 -7.1488115765060056e-01 1.0968092064738141e+01 1.9318710929175680e+01 4.5353817238844591e+00 0 0 0
285 1 7.4434075736145366e-01 1.1477483104834178e+01 1.9333633964050858e+01 1.5838517568515496e+00 0 0 0
1601 2 -6.2973264261542472e-01 8.6752805207380952e+00 1.7814586584740880e+01 1.4846464283625278e+00 0 0 0
1476 1 8.7598566282934365e-01 1.1546587414366474e+01 1.7793665686173899e+01 4.3239625200756189e+00 0 0 0
1318 2 -7.8159950848967519e-01 1.1325721244663706e+01 1.7946760792507256e+01 2.1756844269637665e+00 0 0 0
373 2 -7.3423522938347963e-01 1.1887748032759701e+01 2.1011532922228806e+01 2.2127932176808192e+00 0 0 0
193 1 9.1760409480705962e-01 1.2014040514315518e+01 2.0897096474629429e+01 3.9727497406597592e+00 0 0 0
612 1 8.9160639814720999e-01 1.7963405175302171e+01 2.0773353031064005e+01 3.7037348046664778e+00 0 0 0
1330 2 -6.9689978987757639e-01 1.4551043115183990e+01 1.6532572777761914e+01 1.4877986430399857e+00 0 0 0
1342 2 -7.1619977406964974e-01 1.2624089728058275e+01 1.6061089137239840e+01 3.5519186458608645e+00 0 0 0
1404 1 8.5706726051307613e-01 1.2867102903253317e+01 1.6578605260054015e+01 2.0195600437998880e+00 0 0 0
266 1 6.9316793324209813e-01 1.4995851560000441e+01 1.9436649772218558e+01 3.1706427180151699e+00 0 0 0
511 2 -6.9479530807867684e-01 1.3587904735569689e+01 1.9322207647499880e+01 4.4105725433440872e+00 0 0 0
579 2 -7.5462377269951242e-01 1.6582589915292345e+01 1.9311435703299107e+01 4.0956823645913776e+00 0 0 0
703 1 6.3263802258060298e-01 1.7695070683838303e+01 1.9210604562469015e+01 8.1405168494814961e-01 0 0 0
1159 1 8.8443450247390309e-01 1.7745782999601079e+01 1.7811589396456100e+01 3.7946828868042815e+00 0 0 0
1285 2 -5.9763883256097461e-01 1.7749668019134901e+01 1.6984738686395502e+01 8.1601583151402635e-01 0 0 0
2575 1 9.2504388206127786e-01 1.6844142098496732e+01 1.6791844482259428e+01 3.9534610016601412e+01 0 0 0
295 1 6.2455715323411232e-01 2.6002610480876660e+00 4.4274685664864180e+00 5.0382126010330657e+00 0 0 0
1275 2 -7.1779379228435225e-01 5.3104568647374268e+00 1.7263708875446189e+00 6.0237010102918900e+00 0 0 0
1513 1 9.2215883425311729e-01 3.7404755051582672e+00 1.1064911033299387e+00 6.3051605388502168e+00 0 0 0
1479 1 8.7167678929272863e-01 8.9342773780602414e-01 1.1180370906193313e+00 6.5852644612393423e+00 0 0 0
1310 2 -6.3502919375909794e-01 2.5392810016920038e+00 2.4661463301209885e+00 6.6092659735752122e+00 0 0 0
949 2 -7.2729381978242258e-01 3.8050998561503655e+00 4.1717709451448446e+00 8.6921290138698151e+00 0 0 0
992 2 -6.8823385168885698e-01 1.3319824817908950e+00 4.2733958068119993e+00 8.7416313946724493e+00 0 0 0
1382 2 -6.6660631824181471e-01 1.0704415081963017e+00 1.2851951656130114e+00 8.4660724997081687e+00 0 0 0
1140 1 9.5492231653368576e-01 2.5990146463008656e+00 2.9133494942032958e+00 8.6073034910095831e+00 0 0 0
1339 2 -6.2351415071085747e-01 4.0576748961106297e+00 1.1594027769865609e+00 8.5254159221920336e+00 0 0 0
1445 1 7.6334140787284577e-01 5.1666930796102113e+00 4.3218769851379690e+00 7.6014904163400727e+00 0 0 0
795 2 -7.4038662708280822e-01 1.2500611047179049e+01 2.9069303399467572e-01 4.0614079343891945e+01 0 0 0
619 1 7.4430886463323653e-01 8.3524458569027491e+00 4.2282251338661494e+00 5.0677412912119255e+00 0 0 0
593 2 -7.4704273535170618e-01 1.1526953791142958e+01 2.7878899970963391e+00 6.0490913101478325e+00 0 0 0
782 1 8.9505805081090906e-01 7.0462862065056884e+00 1.3491030424759027e+00 6.1047691872751892e+00 0 0 0
814 1 9.0370822551180241e-01 1.0109450695539300e+01 1.4101329920232448e+00 5.9151348007879720e+00 0 0 0
618 2 -6.5275297267377486e-01 8.3045469689943108e+00 2.5517740531984674e+00 5.7399847086436138e+00 0 0 0
317 2 -7.1166593299812286e-01 9.8934509613757609e+00 4.2904158044706673e+00 8.9133452858737208e+00 0 0 0
348 2 -5.9812363893129250e-01 7.0531006553642612e+00 4.0970197086832094e+00 8.7897462401701514e+00 0 0 0
459 1 8.8748863591777527e-01 8.7775653548713439e+00 2.6847318860388607e+00 8.7072508305982552e+00 0 0 0
649 2 -6.9124949774046529e-01 9.6578722405585182e+00 1.4478917935408266e+00 8.1455151704466147e+00 0 0 0
687 2 -6.7792261360154227e-01 7.2689109481788936e+00 1.1432138085561645e+00 8.1441193801104035e+00 0 0 0
748 1 7.8769627251653940e-01 1.1580065852868266e+01 4.2363870682973932e+00 6.9493101657968213e+00 0 0 0
71 1 7.1794719534913565e-01 1.2113191413449918e+01 1.4218885327715969e+00 9.6181712400583574e+00 0 0 0
1586 2 -5.1921637354201899e-01 6.9993309455492350e+00 2.9320151164022484e-01 1.7336302112391973e+01 0 0 0
943 1 7.4620283158041634e-01 1.4998905439919639e+01 4.5733701620214369e+00 5.8863764814893358e+00 0 0 0
2485 1 7.0094849780071999e-01 1.7855054476891873e+01 1.2138449516218095e+00 9.5725877890078106e+00 0 0 0
28 2 -6.6931227869124221e-01 1.8459595677371155e+01 2.6011601691683532e+00 5.9457334329278462e+00 0 0 0
138 1 7.4755118423584255e-01 1.8442471016661457e+01 4.1672400066641639e+00 7.0137301126854368e+00 0 0 0
44 2 -6.9922145535395008e-01 1.4848122489011571e+01 2.8265891729380459e+00 6.7415511262809069e+00 0 0 0
167 1 8.6971806882501956e-01 1.3177843415351951e+01 1.5463442861598138e+00 6.2540828689657602e+00 0 0 0
191 1 8.6914407864258192e-01 1.6647002072008572e+01 1.3205117886288629e+00 6.4610680919346075e+00 0 0 0
59 2 -7.1103900869934411e-01 1.6141779655737412e+01 1.6087163376813289e+00 8.4405163205833134e+00 0 0 0
88 2 -7.1903788011489711e-01 1.3471454353549198e+01 1.4198071380269812e+00 8.4454523353257756e+00 0 0 0
338 1 1.0178334390458341e+00 1.4791771747175225e+01 2.6033872729437038e+00 8.5153969804046490e+00 0 0 0
989 2 -5.7156307663356931e-01 1.3382499378532128e+01 4.2124686019798760e+00 8.9020803151061152e+00 0 0 0
1118 2 -5.8443796894506361e-01 1.6026683592617623e+01 4.5195565712168433e+00 9.1605502309677878e+00 0 0 0
1906 1 7.1749297121449185e-01 2.8727237604872600e+00 1.0258860339790683e+01 5.7042084108402467e+00 0 0 0
1277 2 -6.7938304478863321e-01 5.7949069734847640e+00 8.6406755105849982e+00 5.9922765909733364e+00 0 0 0
757 1 8.4798299252459675e-01 4.1392508790614739e+00 7.2411837651274622e+00 6.4619943340133696e+00 0 0 0
818 1 8.6908889671147238e-01 1.1695678384491552e+00 7.3113147750855934e+00 6.4611357202599109e+00 0 0 0
930 2 -6.8307346929798474e-01 2.6569219539813171e+00 6.1041309299569519e+00 6.6097860515288440e+00 0 0 0
1195 2 -7.0437043415810008e-01 2.5090027436709570e+00 8.6821941893537460e+00 6.6033522639311224e+00 0 0 0
1236 2 -6.2523203021893003e-01 5.8581866153304256e+00 5.7134372289353781e+00 6.2568683549326920e+00 0 0 0
2047 2 -5.5695214822319550e-01 3.9277139221282433e+00 1.0282250207999097e+01 9.0243921239594460e+00 0 0 0
1757 1 7.6741343933743822e-01 5.2616373872791433e+00 7.3165680463861689e+00 1.0123153778227302e+01 0 0 0
1653 1 8.9240776772892372e-01 2.6088444133140340e+00 8.8207740421675620e+00 8.7173832155985700e+00 0 0 0
881 1 9.1354975720769571e-01 2.5716801474015720e+00 5.8198297819237554e+00 8.6668705671415793e+00 0 0 0
1019 2 -6.9439117659522864e-01 1.0972023153704753e+00 7.1923658397978505e+00 8.7249227346916989e+00 0 0 0
1092 2 -6.8675953016037250e-01 3.9034349172778988e+00 7.1275617253320789e+00 8.5422937134840513e+00 0 0 0
1932 2 -6.6891087532816629e-01 1.4934567818895421e+00 1.0178993553692996e+01 8.8752566572288352e+00 0 0 0
892 1 7.4928946476261016e-01 6.1673375251352951e+00 1.0267810951935594e+01 6.8427434968296952e+00 0 0 0
2075 2 -5.8539995610973883e-01 1.2025382388569829e+01 8.4181895186635138e+00 6.0563957547785430e+00 0 0 0
557 2 -7.7405419550407906e-01 1.1814003995989987e+01 5.7474735373803965e+00 6.0988774574114153e+00 0 0 0
2576 2 -6.9635253469592817e-01 8.5996868749101090e+00 5.8586442942123167e+00 6.6071482531927730e+00 0 0 0
2523 1 7.3936129168050579e-01 1.1851678167126103e+01 1.0254115691091446e+01 7.8529731389336437e+00 0 0 0
2440 1 9.8977628661176598e-01 7.2777977320215177e+00 7.1084098403797658e+00 6.3064469288469480e+00 0 0 0
2372 1 8.7507575656850611e-01 1.0285407940188060e+01 7.0826603027635864e+00 6.2348487732384328e+00 0 0 0
2253 2 -6.2123691178905416e-01 9.1723814704715405e+00 8.5949761582533775e+00 6.4316451160378092e+00 0 0 0
1 1 9.4146876042312433e-01 1.1725088206296794e+01 6.9588198048411245e+00 1.0242615271947871e+01 0 0 0
2505 2 -5.8573704928945669e-01 7.5613002920498227e+00 7.5025178005324813e+00 8.1890043138851087e+00 0 0 0
2398 2 -5.6838726915531657e-01 9.9423751045343511e+00 7.2733147025510592e+00 8.4146222447016576e+00 0 0 0
247 1 8.9799164869430037e-01 8.6473014051143799e+00 5.5761383846197932e+00 8.5098906386400177e+00 0 0 0
1644 1 9.2789140126880998e-01 8.7615957628211003e+00 8.8802922513825013e+00 8.5498515559842083e+00 0 0 0
1306 2 -6.3099393521416036e-01 7.5028175723695840e+00 1.0386840783760054e+01 8.9559497102463652e+00 0 0 0
1224 2 -6.6531117189146627e-01 1.0056543319891421e+01 1.0328310289370144e+01 9.0946607406187105e+00 0 0 0
2536 1 8.3541242166987184e-01 1.4906135510204399e+01 1.0661847357299528e+01 5.4542774801738334e+00 0 0 0
13 2 -6.7988577085663671e-01 1.8197399867892475e+01 5.7542647356240009e+00 6.2097038239227098e+00 0 0 0
175 2 -6.8195533636300787e-01 1.8019666720291156e+01 8.4774273069283073e+00 6.0100763121170093e+00 0 0 0
294 2 -5.7146145383563074e-01 1.5242932123326787e+01 8.9942148857829345e+00 6.4787701510584235e+00 0 0 0
545 2 -7.7951688493047500e-01 1.4982828906347443e+01 6.0109035342675696e+00 6.4908316432130642e+00 0 0 0
729 1 9.8621246457794243e-01 1.3435249545875401e+01 7.1055729031257417e+00 6.1410160196429953e+00 0 0 0
833 1 8.9981654306199133e-01 1.6541593214284998e+01 7.1875688119463632e+00 6.2999235946684111e+00 0 0 0
154 1 9.5589355888838834e-01 1.5121573280494859e+01 8.8117838054391839e+00 8.5697530907803205e+00 0 0 0
387 2 -6.4315275244764214e-01 1.6206327303084578e+01 7.4666099952044398e+00 8.2861226540318622e+00 0 0 0
426 2 -5.8569936125533240e-01 1.3554294681338957e+01 1.0325218960895359e+01 9.0159403298147680e+00 0 0 0
464 2 -6.7346958667724333e-01 1.3709393349206678e+01 7.3861472563998722e+00 8.0625524371388639e+00 0 0 0
469 2 -6.6021087464801598e-01 1.6171775028952762e+01 1.0300004343749427e+01 8.9775206610986160e+00 0 0 0
1323 1 8.7458714966977114e-01 1.4539798114261030e+01 6.0389191271074676e+00 8.6503667794998531e+00 0 0 0
648 1 6.5308181028833323e-01 1.8146705175143342e+01 1.0196046304589908e+01 7.4575574842976424e+00 0 0 0
1902 2 -7.1338155114748891e-01 5.8117545043615726e+00 1.4255487821018185e+01 5.7366730085585580e+00 0 0 0
1355 2 -7.3297195873516885e-01 5.8746536641793723e+00 1.1791602353789244e+01 6.0679841337602003e+00 0 0 0
2378 1 9.0524300684745507e-01 4.2616113241599782e+00 1.3232826445748838e+01 6.1542693874517669e+00 0 0 0
2298 1 9.4667390691093367e-01 1.2791893261231915e+00 1.2999168211256318e+01 6.1312410411090577e+00 0 0 0
2180 2 -7.2587815165075487e-01 2.6214454608316786e+00 1.1992780332245783e+01 6.3316283635670771e+00 0 0 0
2020 2 -6.8115716331670795e-01 2.7715853683398586e+00 1.4572650991520527e+01 6.3178555508776801e+00 0 0 0
2215 1 9.3863224433050385e-01 2.7283109770584395e+00 1.1969147733040758e+01 8.6340547928377234e+00 0 0 0
2111 2 -6.5110053306011650e-01 1.4468924267308232e+00 1.3174136273973275e+01 8.2130372897572403e+00 0 0 0
2086 2 -7.4069439955982919e-01 4.1653238211470782e+00 1.3042080402267084e+01 8.3065553545670880e+00 0 0 0
452 1 8.1479840049628649e-01 5.7000400906743378e+00 1.3099004061979441e+01 9.2188188912672988e+00 0 0 0
1715 1 8.3442347631802161e-01 2.8843578566815546e+00 1.4701149951028976e+01 8.5994695398600438e+00 0 0 0
2221 1 8.0201513916656741e-01 8.8573802449076666e+00 9.8954044578597600e+00 4.5022764158149169e+00 0 0 0
1879 2 -6.0218009365077485e-01 1.1495965411946662e+01 1.1861673778501206e+01 6.2811532915200079e+00 0 0 0
654 2 -7.9558538977455606e-01 1.1553123625890260e+01 1.4229938883772844e+01 5.4738772515437093e+00 0 0 0
1049 1 9.1374273665362848e-01 1.0194171841303078e+01 1.3306329785843356e+01 6.5704427314341203e+00 0 0 0
743 2 -7.4071350463526409e-01 8.7263914710210262e+00 1.4507401367651303e+01 6.6740162055509593e+00 0 0 0
886 2 -6.6375321321130176e-01 8.7205016154291766e+00 1.2188249147172264e+01 6.5103651606860540e+00 0 0 0
1018 1 8.3864943407473025e-01 7.2701901984108463e+00 1.3197113656035782e+01 6.3144210490032044e+00 0 0 0
61 1 8.7869182998734574e-01 8.8226809997951428e+00 1.4938695626508425e+01 8.4089656727701509e+00 0 0 0
785 2 -7.4752214416787999e-01 1.0337176051018611e+01 1.3285036250737223e+01 8.4631040551817680e+00 0 0 0
829 2 -6.2164189043270657e-01 7.4236860896574370e+00 1.3341356563890086e+01 8.8079674758484714e+00 0 0 0
1033 1 9.4410762502042611e-01 8.8381688405959675e+00 1.1816127483111122e+01 8.9026182536379554e+00 0 0 0
1274 1 7.6868331509117582e-01 1.1528301527748647e+01 1.3512301782840950e+01 9.5146981813132641e+00 0 0 0
1210 2 -6.9410353804569724e-01 1.8201297738031563e+01 1.4646632121775340e+01 6.0243167783966847e+00 0 0 0
109 2 -6.5409017202505215e-01 1.8186059843410138e+01 1.1991091160458232e+01 6.0360049285385919e+00 0 0 0
875 1 8.9305853191477569e-01 1.6630181927431572e+01 1.3457281884062860e+01 6.4475562592198710e+00 0 0 0
913 1 8.3036802658625108e-01 1.3236881589805787e+01 1.3410590091910329e+01 6.1176221643343336e+00 0 0 0
1003 2 -7.3950602958185863e-01 1.4799460543847720e+01 1.1793519648933868e+01 6.4119424627634709e+00 0 0 0
1169 2 -7.1098530775977375e-01 1.4852193237758875e+01 1.4638398294846564e+01 6.2883351913764365e+00 0 0 0
1997 1 8.1766805013475297e-01 1.7945479476514794e+01 1.3304000087038657e+01 9.7196945009128122e+00 0 0 0
509 1 9.2731719507733601e-01 1.4919940036385851e+01 1.1861111877061488e+01 8.3135677792388041e+00 0 0 0
1119 2 -6.0945297043497670e-01 1.3665734508272113e+01 1.3393718856370782e+01 8.3963988612202289e+00 0 0 0
1138 2 -7.0506056608928946e-01 1.6190922760344630e+01 1.3453827042434023e+01 8.2577158345074668e+00 0 0 0
1327 1 9.5490056088261166e-01 1.4963668351019528e+01 1.4860153683842565e+01 8.4141843460912344e+00 0 0 0
1547 2 -6.7002456117867282e-01 1.5917840781206113e+01 1.6384686772109859e+01 8.4894539137216789e+00 0 0 0
1770 1 7.5908853693080480e-01 2.6004651190184114e+00 1.5942361121682103e+01 5.3678604535935293e+00 0 0 0
1790 2 -5.8921211482742519e-01 2.5247046166570573e+00 1.7869070791037171e+01 6.4451780006062220e+00 0 0 0
1488 2 -6.4073181959972680e-01 1.4191189150530226e+00 1.6219880528633194e+01 8.4918672513364388e+00 0 0 0
1940 1 8.4633563719990734e-01 1.0719980953693637e+00 1.9221592025810313e+01 6.0470076122949923e+00 0 0 0
1863 2 -6.8276954145081936e-01 5.7436656888670345e+00 1.8443946150590303e+01 5.9492894189488634e+00 0 0 0
1566 2 -7.4444317680663918e-01 5.7848221268920135e+00 2.1017501347854100e+01 5.7033833877166291e+00 0 0 0
1963 1 9.2234774306190614e-01 4.1862295505368614e+00 1.9515755907188669e+01 6.0342115792845812e+00 0 0 0
1765 2 -7.6576627825114030e-01 9.8871395817877317e-01 1.9118763612789579e+01 8.1349079488668448e+00 0 0 0
1710 2 -6.3538082823315589e-01 3.6700873565143435e+00 1.9328010352182137e+01 8.0565618333488302e+00 0 0 0
1413 2 -6.9309815143489606e-01 4.0577155368377058e+00 1.6565589657471659e+01 8.3406368822456596e+00 0 0 0
1213 1 1.0010220775380234e+00 2.7142115901816171e+00 1.7803188127648017e+01 8.3868581967281024e+00 0 0 0
51 1 7.4125432310185257e-01 5.6473332328263774e+00 1.9632423371017541e+01 9.9907704974785432e+00 0 0 0
1690 2 -7.4160626245004213e-01 2.5435799081408557e+00 2.0764440878801157e+01 6.0227662000585518e+00 0 0 0
2269 1 7.7066189279350306e-01 5.7208426508944017e+00 1.6774629969606139e+01 7.6594394559945611e+00 0 0 0
2124 2 -7.1717851303848967e-01 7.5717340243105671e+00 1.6975675953399710e-01 3.4022055288731266e+01 0 1 0
22 2 -6.1195632713322246e-01 1.1782652262454800e+01 2.0664481982565061e+01 6.3301546566311320e+00 0 0 0
1496 1 7.3852092372057720e-01 8.7447193255195241e+00 1.5915022370286804e+01 5.0237568339815812e+00 0 0 0
944 1 7.4301231527681433e-01 1.2134880090540312e+01 1.6360561558974592e+01 7.5428511909703735e+00 0 0 0
513 2 -6.1318605256812753e-01 1.2026730039900182e+01 1.7947394712940284e+01 6.1671445977998056e+00 0 0 0
319 1 8.8832246893751055e-01 7.0532986110126332e+00 1.9411036056974837e+01 5.8532130406559268e+00 0 0 0
128 2 -5.7908614578049034e-01 8.8010779321926513e+00 1.8165484099797400e+01 6.5239508205202306e+00 0 0 0
473 1 9.2904153234835196e-01 1.0164142712225724e+01 1.9437421704748107e+01 6.2100653412757119e+00 0 0 0