ITEM: TIMESTEP
0
ITEM: NUMBER OF ATOMS
2800
ITEM: BOX BOUNDS pp pp pp
0.0000000000000000e+00 3.0234985138140274e+01
0.0000000000000000e+00 3.0105006526269531e+01
0.0000000000000000e+00 3.4133433498942082e+01
ITEM: ATOMS id type x y z 
1 1 3.02343 1.47238 3.19062 
2 1 3.0235 0 0 
3 1 0.000580604 1.51188 1.07606 
4 1 1.5117 4.50263 2.13334 
5 1 3.0235 3.0105 0 
7 2 0.000253289 3.07861 2.19094 
8 2 1.44695 4.52695 4.24705 
9 2 3.02315 3.02522 2.06123 
10 2 0.000252965 5.98004 2.20545 
11 2 1.57645 4.4783 0.0196267 
12 2 4.46994 4.4783 0.0196267 
13 2 3.02315 5.92665 2.07574 
14 1 3.0235 6.021 0 
61 2 1.44635 1.44155 4.28631 
70 1 4.5352 4.50263 2.13334 
74 2 4.60046 4.52695 4.24705 
143 2 4.59986 1.44155 4.28631 
146 1 6.0469 2.98425 4.26668 
147 1 3.02399 4.49613 5.34274 
150 1 6.0469 5.99475 4.26668 
66 1 9.07043 1.47238 3.19062 
67 1 9.0705 0 0 
68 1 6.04758 1.51188 1.07606 
69 1 7.5587 4.50263 2.13334 
71 1 9.0705 3.0105 0 
73 2 6.04725 3.07861 2.19094 
75 2 7.49395 4.52695 4.24705 
76 2 9.07015 3.02522 2.06123 
77 2 6.04725 5.98004 2.20545 
78 2 7.62345 4.4783 0.0196267 
79 2 10.5169 4.4783 0.0196267 
80 2 9.07015 5.92665 2.07574 
81 1 9.0705 6.021 0 
144 2 7.49335 1.44155 4.28631 
275 1 10.5822 4.50263 2.13334 
279 2 10.6475 4.52695 4.24705 
348 2 10.6469 1.44155 4.28631 
351 1 12.0939 2.98425 4.26668 
352 1 9.07099 4.49613 5.34274 
355 1 12.0939 5.99475 4.26668 
271 1 15.1174 1.47238 3.19062 
272 1 15.1175 0 0 
273 1 12.0946 1.51188 1.07606 
274 1 13.6057 4.50263 2.13334 
276 1 15.1175 3.0105 0 
278 2 12.0943 3.07861 2.19094 
280 2 13.541 4.52695 4.24705 
281 2 15.1172 3.02522 2.06123 
282 2 12.0943 5.98004 2.20545 
283 2 13.6705 4.4783 0.0196267 
284 2 16.5639 4.4783 0.0196267 
285 2 15.1172 5.92665 2.07574 
286 1 15.1175 6.021 0 
349 2 13.5403 1.44155 4.28631 
555 1 16.6292 4.50263 2.13334 
559 2 16.6945 4.52695 4.24705 
628 2 16.6939 1.44155 4.28631 
631 1 18.1409 2.98425 4.26668 
632 1 15.118 4.49613 5.34274 
635 1 18.1409 5.99475 4.26668 
551 1 21.1644 1.47238 3.19062 
552 1 21.1645 0 0 
553 1 18.1416 1.51188 1.07606 
554 1 19.6527 4.50263 2.13334 
556 1 21.1645 3.0105 0 
558 2 18.1413 3.07861 2.19094 
560 2 19.588 4.52695 4.24705 
561 2 21.1642 3.02522 2.06123 
562 2 18.1413 5.98004 2.20545 
563 2 19.7175 4.4783 0.0196267 
564 2 22.6109 4.4783 0.0196267 
565 2 21.1642 5.92665 2.07574 
566 1 21.1645 6.021 0 
629 2 19.5873 1.44155 4.28631 
835 1 22.6762 4.50263 2.13334 
839 2 22.7415 4.52695 4.24705 
908 2 22.7409 1.44155 4.28631 
911 1 24.1879 2.98425 4.26668 
912 1 21.165 4.49613 5.34274 
915 1 24.1879 5.99475 4.26668 
831 1 27.2114 1.47238 3.19062 
832 1 27.2115 0 0 
833 1 24.1886 1.51188 1.07606 
834 1 25.6997 4.50263 2.13334 
836 1 27.2115 3.0105 0 
838 2 24.1883 3.07861 2.19094 
840 2 25.635 4.52695 4.24705 
841 2 27.2112 3.02522 2.06123 
842 2 24.1883 5.98004 2.20545 
843 2 25.7645 4.4783 0.0196267 
844 2 28.6579 4.4783 0.0196267 
845 2 27.2112 5.92665 2.07574 
846 1 27.2115 6.021 0 
909 2 25.6343 1.44155 4.28631 
1111 1 28.7232 4.50263 2.13334 
1112 2 28.7885 4.52695 4.24705 
1128 2 28.7879 1.44155 4.28631 
1130 1 30.2349 2.98425 4.26668 
1131 1 27.212 4.49613 5.34274 
1134 1 30.2349 5.99475 4.26668 
6 1 3.02343 7.49338 3.19062 
15 1 0.000580604 7.53288 1.07606 
16 1 1.5117 10.5236 2.13334 
17 1 3.0235 9.0315 0 
19 2 0.000253289 9.09961 2.19094 
20 2 1.44695 10.548 4.24705 
21 2 3.02315 9.04622 2.06123 
22 2 0.000252965 12.001 2.20545 
23 2 1.57645 10.4993 0.0196267 
24 2 4.46994 10.4993 0.0196267 
25 2 3.02315 11.9476 2.07574 
26 1 3.0235 12.042 0 
62 2 1.44635 7.46255 4.28631 
84 1 4.5352 10.5236 2.13334 
88 2 4.60046 10.548 4.24705 
157 2 4.59986 7.46255 4.28631 
160 1 6.0469 9.00525 4.26668 
161 1 3.02399 10.5171 5.34274 
164 1 6.0469 12.0158 4.26668 
72 1 9.07043 7.49338 3.19062 
82 1 6.04758 7.53288 1.07606 
83 1 7.5587 10.5236 2.13334 
85 1 9.0705 9.0315 0 
87 2 6.04725 9.09961 2.19094 
89 2 7.49395 10.548 4.24705 
90 2 9.07015 9.04622 2.06123 
91 2 6.04725 12.001 2.20545 
92 2 7.62345 10.4993 0.0196267 
93 2 10.5169 10.4993 0.0196267 
94 2 9.07015 11.9476 2.07574 
95 1 9.0705 12.042 0 
158 2 7.49335 7.46255 4.28631 
289 1 10.5822 10.5236 2.13334 
293 2 10.6475 10.548 4.24705 
362 2 10.6469 7.46255 4.28631 
365 1 12.0939 9.00525 4.26668 
366 1 9.07099 10.5171 5.34274 
369 1 12.0939 12.0158 4.26668 
277 1 15.1174 7.49338 3.19062 
287 1 12.0946 7.53288 1.07606 
288 1 13.6057 10.5236 2.13334 
290 1 15.1175 9.0315 0 
292 2 12.0943 9.09961 2.19094 
294 2 13.541 10.548 4.24705 
295 2 15.1172 9.04622 2.06123 
296 2 12.0943 12.001 2.20545 
297 2 13.6705 10.4993 0.0196267 
298 2 16.5639 10.4993 0.0196267 
299 2 15.1172 11.9476 2.07574 
300 1 15.1175 12.042 0 
363 2 13.5403 7.46255 4.28631 
569 1 16.6292 10.5236 2.13334 
573 2 16.6945 10.548 4.24705 
642 2 16.6939 7.46255 4.28631 
645 1 18.1409 9.00525 4.26668 
646 1 15.118 10.5171 5.34274 
649 1 18.1409 12.0158 4.26668 
557 1 21.1644 7.49338 3.19062 
567 1 18.1416 7.53288 1.07606 
568 1 19.6527 10.5236 2.13334 
570 1 21.1645 9.0315 0 
572 2 18.1413 9.09961 2.19094 
574 2 19.588 10.548 4.24705 
575 2 21.1642 9.04622 2.06123 
576 2 18.1413 12.001 2.20545 
577 2 19.7175 10.4993 0.0196267 
578 2 22.6109 10.4993 0.0196267 
579 2 21.1642 11.9476 2.07574 
580 1 21.1645 12.042 0 
643 2 19.5873 7.46255 4.28631 
849 1 22.6762 10.5236 2.13334 
853 2 22.7415 10.548 4.24705 
922 2 22.7409 7.46255 4.28631 
925 1 24.1879 9.00525 4.26668 
926 1 21.165 10.5171 5.34274 
929 1 24.1879 12.0158 4.26668 
837 1 27.2114 7.49338 3.19062 
847 1 24.1886 7.53288 1.07606 
848 1 25.6997 10.5236 2.13334 
850 1 27.2115 9.0315 0 
852 2 24.1883 9.09961 2.19094 
854 2 25.635 10.548 4.24705 
855 2 27.2112 9.04622 2.06123 
856 2 24.1883 12.001 2.20545 
857 2 25.7645 10.4993 0.0196267 
858 2 28.6579 10.4993 0.0196267 
859 2 27.2112 11.9476 2.07574 
860 1 27.2115 12.042 0 
923 2 25.6343 7.46255 4.28631 
1113 1 28.7232 10.5236 2.13334 
1114 2 28.7885 10.548 4.24705 
1141 2 28.7879 7.46255 4.28631 
1143 1 30.2349 9.00525 4.26668 
1144 1 27.212 10.5171 5.34274 
1147 1 30.2349 12.0158 4.26668 
18 1 3.02343 13.5144 3.19062 
27 1 0.000580604 13.5539 1.07606 
28 1 1.5117 16.5446 2.13334 
29 1 3.0235 15.0525 0 
31 2 0.000253289 15.1206 2.19094 
32 2 1.44695 16.569 4.24705 
33 2 3.02315 15.0672 2.06123 
34 2 0.000252965 18.022 2.20545 
35 2 1.57645 16.5203 0.0196267 
36 2 4.46994 16.5203 0.0196267 
37 2 3.02315 17.9686 2.07574 
38 1 3.0235 18.063 0 
63 2 1.44635 13.4836 4.28631 
98 1 4.5352 16.5446 2.13334 
102 2 4.60046 16.569 4.24705 
171 2 4.59986 13.4836 4.28631 
174 1 6.0469 15.0263 4.26668 
175 1 3.02399 16.5381 5.34274 
178 1 6.0469 18.0368 4.26668 
86 1 9.07043 13.5144 3.19062 
96 1 6.04758 13.5539 1.07606 
97 1 7.5587 16.5446 2.13334 
99 1 9.0705 15.0525 0 
101 2 6.04725 15.1206 2.19094 
103 2 7.49395 16.569 4.24705 
104 2 9.07015 15.0672 2.06123 
105 2 6.04725 18.022 2.20545 
106 2 7.62345 16.5203 0.0196267 
107 2 10.5169 16.5203 0.0196267 
108 2 9.07015 17.9686 2.07574 
109 1 9.0705 18.063 0 
172 2 7.49335 13.4836 4.28631 
303 1 10.5822 16.5446 2.13334 
307 2 10.6475 16.569 4.24705 
376 2 10.6469 13.4836 4.28631 
379 1 12.0939 15.0263 4.26668 
380 1 9.07099 16.5381 5.34274 
383 1 12.0939 18.0368 4.26668 
291 1 15.1174 13.5144 3.19062 
301 1 12.0946 13.5539 1.07606 
302 1 13.6057 16.5446 2.13334 
304 1 15.1175 15.0525 0 
306 2 12.0943 15.1206 2.19094 
308 2 13.541 16.569 4.24705 
309 2 15.1172 15.0672 2.06123 
310 2 12.0943 18.022 2.20545 
311 2 13.6705 16.5203 0.0196267 
312 2 16.5639 16.5203 0.0196267 
313 2 15.1172 17.9686 2.07574 
314 1 15.1175 18.063 0 
377 2 13.5403 13.4836 4.28631 
583 1 16.6292 16.5446 2.13334 
587 2 16.6945 16.569 4.24705 
656 2 16.6939 13.4836 4.28631 
659 1 18.1409 15.0263 4.26668 
660 1 15.118 16.5381 5.34274 
663 1 18.1409 18.0368 4.26668 
571 1 21.1644 13.5144 3.19062 
581 1 18.1416 13.5539 1.07606 
582 1 19.6527 16.5446 2.13334 
584 1 21.1645 15.0525 0 
586 2 18.1413 15.1206 2.19094 
588 2 19.588 16.569 4.24705 
589 2 21.1642 15.0672 2.06123 
590 2 18.1413 18.022 2.20545 
591 2 19.7175 16.5203 0.0196267 
592 2 22.6109 16.5203 0.0196267 
593 2 21.1642 17.9686 2.07574 
594 1 21.1645 18.063 0 
657 2 19.5873 13.4836 4.28631 
863 1 22.6762 16.5446 2.13334 
867 2 22.7415 16.569 4.24705 
936 2 22.7409 13.4836 4.28631 
939 1 24.1879 15.0263 4.26668 
940 1 21.165 16.5381 5.34274 
943 1 24.1879 18.0368 4.26668 
851 1 27.2114 13.5144 3.19062 
861 1 24.1886 13.5539 1.07606 
862 1 25.6997 16.5446 2.13334 
864 1 27.2115 15.0525 0 
866 2 24.1883 15.1206 2.19094 
868 2 25.635 16.569 4.24705 
869 2 27.2112 15.0672 2.06123 
870 2 24.1883 18.022 2.20545 
871 2 25.7645 16.5203 0.0196267 
872 2 28.6579 16.5203 0.0196267 
873 2 27.2112 17.9686 2.07574 
874 1 27.2115 18.063 0 
937 2 25.6343 13.4836 4.28631 
1115 1 28.7232 16.5446 2.13334 
1116 2 28.7885 16.569 4.24705 
1154 2 28.7879 13.4836 4.28631 
1156 1 30.2349 15.0263 4.26668 
1157 1 27.212 16.5381 5.34274 
1160 1 30.2349 18.0368 4.26668 
30 1 3.02343 19.5354 3.19062 
39 1 0.000580604 19.5749 1.07606 
40 1 1.5117 22.5656 2.13334 
41 1 3.0235 21.0735 0 
43 2 0.000253289 21.1416 2.19094 
44 2 1.44695 22.59 4.24705 
45 2 3.02315 21.0882 2.06123 
46 2 0.000252965 24.043 2.20545 
47 2 1.57645 22.5413 0.0196267 
48 2 4.46994 22.5413 0.0196267 
49 2 3.02315 23.9896 2.07574 
50 1 3.0235 24.084 0 
64 2 1.44635 19.5046 4.28631 
112 1 4.5352 22.5656 2.13334 
116 2 4.60046 22.59 4.24705 
185 2 4.59986 19.5046 4.28631 
188 1 6.0469 21.0473 4.26668 
189 1 3.02399 22.5591 5.34274 
192 1 6.0469 24.0578 4.26668 
100 1 9.07043 19.5354 3.19062 
110 1 6.04758 19.5749 1.07606 
111 1 7.5587 22.5656 2.13334 
113 1 9.0705 21.0735 0 
115 2 6.04725 21.1416 2.19094 
117 2 7.49395 22.59 4.24705 
118 2 9.07015 21.0882 2.06123 
119 2 6.04725 24.043 2.20545 
120 2 7.62345 22.5413 0.0196267 
121 2 10.5169 22.5413 0.0196267 
122 2 9.07015 23.9896 2.07574 
123 1 9.0705 24.084 0 
186 2 7.49335 19.5046 4.28631 
317 1 10.5822 22.5656 2.13334 
321 2 10.6475 22.59 4.24705 
390 2 10.6469 19.5046 4.28631 
393 1 12.0939 21.0473 4.26668 
394 1 9.07099 22.5591 5.34274 
397 1 12.0939 24.0578 4.26668 
305 1 15.1174 19.5354 3.19062 
315 1 12.0946 19.5749 1.07606 
316 1 13.6057 22.5656 2.13334 
318 1 15.1175 21.0735 0 
320 2 12.0943 21.1416 2.19094 
322 2 13.541 22.59 4.24705 
323 2 15.1172 21.0882 2.06123 
324 2 12.0943 24.043 2.20545 
325 2 13.6705 22.5413 0.0196267 
326 2 16.5639 22.5413 0.0196267 
327 2 15.1172 23.9896 2.07574 
328 1 15.1175 24.084 0 
391 2 13.5403 19.5046 4.28631 
597 1 16.6292 22.5656 2.13334 
601 2 16.6945 22.59 4.24705 
670 2 16.6939 19.5046 4.28631 
673 1 18.1409 21.0473 4.26668 
674 1 15.118 22.5591 5.34274 
677 1 18.1409 24.0578 4.26668 
585 1 21.1644 19.5354 3.19062 
595 1 18.1416 19.5749 1.07606 
596 1 19.6527 22.5656 2.13334 
598 1 21.1645 21.0735 0 
600 2 18.1413 21.1416 2.19094 
602 2 19.588 22.59 4.24705 
603 2 21.1642 21.0882 2.06123 
604 2 18.1413 24.043 2.20545 
605 2 19.7175 22.5413 0.0196267 
606 2 22.6109 22.5413 0.0196267 
607 2 21.1642 23.9896 2.07574 
608 1 21.1645 24.084 0 
671 2 19.5873 19.5046 4.28631 
877 1 22.6762 22.5656 2.13334 
881 2 22.7415 22.59 4.24705 
950 2 22.7409 19.5046 4.28631 
953 1 24.1879 21.0473 4.26668 
954 1 21.165 22.5591 5.34274 
957 1 24.1879 24.0578 4.26668 
865 1 27.2114 19.5354 3.19062 
875 1 24.1886 19.5749 1.07606 
876 1 25.6997 22.5656 2.13334 
878 1 27.2115 21.0735 0 
880 2 24.1883 21.1416 2.19094 
882 2 25.635 22.59 4.24705 
883 2 27.2112 21.0882 2.06123 
884 2 24.1883 24.043 2.20545 
885 2 25.7645 22.5413 0.0196267 
886 2 28.6579 22.5413 0.0196267 
887 2 27.2112 23.9896 2.07574 
888 1 27.2115 24.084 0 
951 2 25.6343 19.5046 4.28631 
1117 1 28.7232 22.5656 2.13334 
1118 2 28.7885 22.59 4.24705 
1167 2 28.7879 19.5046 4.28631 
1169 1 30.2349 21.0473 4.26668 
1170 1 27.212 22.5591 5.34274 
1173 1 30.2349 24.0578 4.26668 
42 1 3.02343 25.5564 3.19062 
51 1 0.000580604 25.5959 1.07606 
52 1 1.5117 28.5866 2.13334 
53 1 3.0235 27.0945 0 
54 2 0.000253289 27.1626 2.19094 
55 2 1.44695 28.611 4.24705 
56 2 3.02315 27.1092 2.06123 
57 2 0.000252965 30.064 2.20545 
58 2 1.57645 28.5623 0.0196267 
59 2 4.46994 28.5623 0.0196267 
60 2 3.02315 30.0106 2.07574 
65 2 1.44635 25.5256 4.28631 
126 1 4.5352 28.5866 2.13334 
129 2 4.60046 28.611 4.24705 
199 2 4.59986 25.5256 4.28631 
202 1 6.0469 27.0683 4.26668 
203 1 3.02399 28.5801 5.34274 
204 1 6.0469 30.0788 4.26668 
114 1 9.07043 25.5564 3.19062 
124 1 6.04758 25.5959 1.07606 
125 1 7.5587 28.5866 2.13334 
127 1 9.0705 27.0945 0 
128 2 6.04725 27.1626 2.19094 
130 2 7.49395 28.611 4.24705 
131 2 9.07015 27.1092 2.06123 
132 2 6.04725 30.064 2.20545 
133 2 7.62345 28.5623 0.0196267 
134 2 10.5169 28.5623 0.0196267 
135 2 9.07015 30.0106 2.07574 
200 2 7.49335 25.5256 4.28631 
331 1 10.5822 28.5866 2.13334 
334 2 10.6475 28.611 4.24705 
404 2 10.6469 25.5256 4.28631 
407 1 12.0939 27.0683 4.26668 
408 1 9.07099 28.5801 5.34274 
409 1 12.0939 30.0788 4.26668 
319 1 15.1174 25.5564 3.19062 
329 1 12.0946 25.5959 1.07606 
330 1 13.6057 28.5866 2.13334 
332 1 15.1175 27.0945 0 
333 2 12.0943 27.1626 2.19094 
335 2 13.541 28.611 4.24705 
336 2 15.1172 27.1092 2.06123 
337 2 12.0943 30.064 2.20545 
338 2 13.6705 28.5623 0.0196267 
339 2 16.5639 28.5623 0.0196267 
340 2 15.1172 30.0106 2.07574 
405 2 13.5403 25.5256 4.28631 
611 1 16.6292 28.5866 2.13334 
614 2 16.6945 28.611 4.24705 
684 2 16.6939 25.5256 4.28631 
687 1 18.1409 27.0683 4.26668 
688 1 15.118 28.5801 5.34274 
689 1 18.1409 30.0788 4.26668 
599 1 21.1644 25.5564 3.19062 
609 1 18.1416 25.5959 1.07606 
610 1 19.6527 28.5866 2.13334 
612 1 21.1645 27.0945 0 
613 2 18.1413 27.1626 2.19094 
615 2 19.588 28.611 4.24705 
616 2 21.1642 27.1092 2.06123 
617 2 18.1413 30.064 2.20545 
618 2 19.7175 28.5623 0.0196267 
619 2 22.6109 28.5623 0.0196267 
620 2 21.1642 30.0106 2.07574 
685 2 19.5873 25.5256 4.28631 
891 1 22.6762 28.5866 2.13334 
894 2 22.7415 28.611 4.24705 
964 2 22.7409 25.5256 4.28631 
967 1 24.1879 27.0683 4.26668 
968 1 21.165 28.5801 5.34274 
969 1 24.1879 30.0788 4.26668 
879 1 27.2114 25.5564 3.19062 
889 1 24.1886 25.5959 1.07606 
890 1 25.6997 28.5866 2.13334 
892 1 27.2115 27.0945 0 
893 2 24.1883 27.1626 2.19094 
895 2 25.635 28.611 4.24705 
896 2 27.2112 27.1092 2.06123 
897 2 24.1883 30.064 2.20545 
898 2 25.7645 28.5623 0.0196267 
899 2 28.6579 28.5623 0.0196267 
900 2 27.2112 30.0106 2.07574 
965 2 25.6343 25.5256 4.28631 
1119 1 28.7232 28.5866 2.13334 
1120 2 28.7885 28.611 4.24705 
1180 2 28.7879 25.5256 4.28631 
1182 1 30.2349 27.0683 4.26668 
1183 1 27.212 28.5801 5.34274 
1184 1 30.2349 30.0788 4.26668 
136 1 4.53511 1.46588 6.40002 
137 1 1.51161 1.46588 6.40002 
138 1 6.04683 4.45663 7.4573 
139 2 3.02366 0.0418581 6.45762 
140 2 1.57687 1.4902 8.51373 
141 2 4.47036 1.4902 8.51373 
142 2 3.02366 2.94329 6.47213 
145 2 6.04656 2.8899 6.34242 
155 2 6.04656 6.00947 6.32791 
207 1 0.000389522 1.45938 9.60941 
208 1 1.51151 4.45013 10.6667 
209 1 3.02331 2.958 8.53336 
211 2 6.22067e-05 3.02611 10.7243 
213 2 3.02296 2.97272 10.5946 
214 2 6.18819e-05 5.92754 10.7388 
215 2 1.57626 4.4258 8.55299 
216 2 4.46975 4.4258 8.55299 
217 2 3.02296 5.87415 10.6091 
218 1 3.02331 5.9685 8.53336 
414 1 4.53501 4.45013 10.6667 
341 1 10.5821 1.46588 6.40002 
342 1 7.55861 1.46588 6.40002 
343 1 12.0938 4.45663 7.4573 
344 2 9.07066 0.0418581 6.45762 
345 2 7.62387 1.4902 8.51373 
346 2 10.5174 1.4902 8.51373 
347 2 9.07066 2.94329 6.47213 
350 2 12.0936 2.8899 6.34242 
360 2 12.0936 6.00947 6.32791 
412 1 6.04739 1.45938 9.60941 
413 1 7.55851 4.45013 10.6667 
415 1 9.07031 2.958 8.53336 
417 2 6.04706 3.02611 10.7243 
420 2 9.06996 2.97272 10.5946 
421 2 6.04706 5.92754 10.7388 
422 2 7.62326 4.4258 8.55299 
423 2 10.5168 4.4258 8.55299 
424 2 9.06996 5.87415 10.6091 
425 1 9.07031 5.9685 8.53336 
694 1 10.582 4.45013 10.6667 
621 1 16.6291 1.46588 6.40002 
622 1 13.6056 1.46588 6.40002 
623 1 18.1408 4.45663 7.4573 
624 2 15.1177 0.0418581 6.45762 
625 2 13.6709 1.4902 8.51373 
626 2 16.5644 1.4902 8.51373 
627 2 15.1177 2.94329 6.47213 
630 2 18.1406 2.8899 6.34242 
640 2 18.1406 6.00947 6.32791 
692 1 12.0944 1.45938 9.60941 
693 1 13.6055 4.45013 10.6667 
695 1 15.1173 2.958 8.53336 
697 2 12.0941 3.02611 10.7243 
700 2 15.117 2.97272 10.5946 
701 2 12.0941 5.92754 10.7388 
702 2 13.6703 4.4258 8.55299 
703 2 16.5638 4.4258 8.55299 
704 2 15.117 5.87415 10.6091 
705 1 15.1173 5.9685 8.53336 
974 1 16.629 4.45013 10.6667 
901 1 22.6761 1.46588 6.40002 
902 1 19.6526 1.46588 6.40002 
903 1 24.1878 4.45663 7.4573 
904 2 21.1647 0.0418581 6.45762 
905 2 19.7179 1.4902 8.51373 
906 2 22.6114 1.4902 8.51373 
907 2 21.1647 2.94329 6.47213 
910 2 24.1876 2.8899 6.34242 
920 2 24.1876 6.00947 6.32791 
972 1 18.1414 1.45938 9.60941 
973 1 19.6525 4.45013 10.6667 
975 1 21.1643 2.958 8.53336 
977 2 18.1411 3.02611 10.7243 
980 2 21.164 2.97272 10.5946 
981 2 18.1411 5.92754 10.7388 
982 2 19.7173 4.4258 8.55299 
983 2 22.6108 4.4258 8.55299 
984 2 21.164 5.87415 10.6091 
985 1 21.1643 5.9685 8.53336 
1189 1 22.676 4.45013 10.6667 
1121 1 28.7231 1.46588 6.40002 
1122 1 25.6996 1.46588 6.40002 
1123 1 30.2348 4.45663 7.4573 
1124 2 27.2117 0.0418581 6.45762 
1125 2 25.7649 1.4902 8.51373 
1126 2 28.6584 1.4902 8.51373 
1127 2 27.2117 2.94329 6.47213 
1129 2 30.2346 2.8899 6.34242 
1139 2 30.2346 6.00947 6.32791 
1187 1 24.1884 1.45938 9.60941 
1188 1 25.6995 4.45013 10.6667 
1190 1 27.2113 2.958 8.53336 
1192 2 24.1881 3.02611 10.7243 
1195 2 27.211 2.97272 10.5946 
1196 2 24.1881 5.92754 10.7388 
1197 2 25.7643 4.4258 8.55299 
1198 2 28.6578 4.4258 8.55299 
1199 2 27.211 5.87415 10.6091 
1200 1 27.2113 5.9685 8.53336 
1326 1 28.723 4.45013 10.6667 
148 1 4.53511 7.48688 6.40002 
149 1 1.51161 7.48688 6.40002 
151 1 6.04683 10.4776 7.4573 
152 2 3.02366 6.06286 6.45762 
153 2 1.57687 7.5112 8.51373 
154 2 4.47036 7.5112 8.51373 
156 2 3.02366 8.96429 6.47213 
159 2 6.04656 8.9109 6.34242 
169 2 6.04656 12.0305 6.32791 
219 1 0.000389522 7.48038 9.60941 
220 1 1.51151 10.4711 10.6667 
221 1 3.02331 8.979 8.53336 
223 2 6.22067e-05 9.04711 10.7243 
225 2 3.02296 8.99372 10.5946 
226 2 6.18819e-05 11.9485 10.7388 
227 2 1.57626 10.4468 8.55299 
228 2 4.46975 10.4468 8.55299 
229 2 3.02296 11.8951 10.6091 
230 1 3.02331 11.9895 8.53336 
428 1 4.53501 10.4711 10.6667 
353 1 10.5821 7.48688 6.40002 
354 1 7.55861 7.48688 6.40002 
356 1 12.0938 10.4776 7.4573 
357 2 9.07066 6.06286 6.45762 
358 2 7.62387 7.5112 8.51373 
359 2 10.5174 7.5112 8.51373 
361 2 9.07066 8.96429 6.47213 
364 2 12.0936 8.9109 6.34242 
374 2 12.0936 12.0305 6.32791 
426 1 6.04739 7.48038 9.60941 
427 1 7.55851 10.4711 10.6667 
429 1 9.07031 8.979 8.53336 
431 2 6.04706 9.04711 10.7243 
434 2 9.06996 8.99372 10.5946 
435 2 6.04706 11.9485 10.7388 
436 2 7.62326 10.4468 8.55299 
437 2 10.5168 10.4468 8.55299 
438 2 9.06996 11.8951 10.6091 
439 1 9.07031 11.9895 8.53336 
708 1 10.582 10.4711 10.6667 
633 1 16.6291 7.48688 6.40002 
634 1 13.6056 7.48688 6.40002 
636 1 18.1408 10.4776 7.4573 
637 2 15.1177 6.06286 6.45762 
638 2 13.6709 7.5112 8.51373 
639 2 16.5644 7.5112 8.51373 
641 2 15.1177 8.96429 6.47213 
644 2 18.1406 8.9109 6.34242 
654 2 18.1406 12.0305 6.32791 
706 1 12.0944 7.48038 9.60941 
707 1 13.6055 10.4711 10.6667 
709 1 15.1173 8.979 8.53336 
711 2 12.0941 9.04711 10.7243 
714 2 15.117 8.99372 10.5946 
715 2 12.0941 11.9485 10.7388 
716 2 13.6703 10.4468 8.55299 
717 2 16.5638 10.4468 8.55299 
718 2 15.117 11.8951 10.6091 
719 1 15.1173 11.9895 8.53336 
988 1 16.629 10.4711 10.6667 
913 1 22.6761 7.48688 6.40002 
914 1 19.6526 7.48688 6.40002 
916 1 24.1878 10.4776 7.4573 
917 2 21.1647 6.06286 6.45762 
918 2 19.7179 7.5112 8.51373 
919 2 22.6114 7.5112 8.51373 
921 2 21.1647 8.96429 6.47213 
924 2 24.1876 8.9109 6.34242 
934 2 24.1876 12.0305 6.32791 
986 1 18.1414 7.48038 9.60941 
987 1 19.6525 10.4711 10.6667 
989 1 21.1643 8.979 8.53336 
991 2 18.1411 9.04711 10.7243 
994 2 21.164 8.99372 10.5946 
995 2 18.1411 11.9485 10.7388 
996 2 19.7173 10.4468 8.55299 
997 2 22.6108 10.4468 8.55299 
998 2 21.164 11.8951 10.6091 
999 1 21.1643 11.9895 8.53336 
1203 1 22.676 10.4711 10.6667 
1132 1 28.7231 7.48688 6.40002 
1133 1 25.6996 7.48688 6.40002 
1135 1 30.2348 10.4776 7.4573 
1136 2 27.2117 6.06286 6.45762 
1137 2 25.7649 7.5112 8.51373 
1138 2 28.6584 7.5112 8.51373 
1140 2 27.2117 8.96429 6.47213 
1142 2 30.2346 8.9109 6.34242 
1152 2 30.2346 12.0305 6.32791 
1201 1 24.1884 7.48038 9.60941 
1202 1 25.6995 10.4711 10.6667 
1204 1 27.2113 8.979 8.53336 
1206 2 24.1881 9.04711 10.7243 
1209 2 27.211 8.99372 10.5946 
1210 2 24.1881 11.9485 10.7388 
1211 2 25.7643 10.4468 8.55299 
1212 2 28.6578 10.4468 8.55299 
1213 2 27.211 11.8951 10.6091 
1214 1 27.2113 11.9895 8.53336 
1328 1 28.723 10.4711 10.6667 
162 1 4.53511 13.5079 6.40002 
163 1 1.51161 13.5079 6.40002 
165 1 6.04683 16.4986 7.4573 
166 2 3.02366 12.0839 6.45762 
167 2 1.57687 13.5322 8.51373 
168 2 4.47036 13.5322 8.51373 
170 2 3.02366 14.9853 6.47213 
173 2 6.04656 14.9319 6.34242 
183 2 6.04656 18.0515 6.32791 
231 1 0.000389522 13.5014 9.60941 
232 1 1.51151 16.4921 10.6667 
233 1 3.02331 15 8.53336 
235 2 6.22067e-05 15.0681 10.7243 
237 2 3.02296 15.0147 10.5946 
238 2 6.18819e-05 17.9695 10.7388 
239 2 1.57626 16.4678 8.55299 
240 2 4.46975 16.4678 8.55299 
241 2 3.02296 17.9161 10.6091 
242 1 3.02331 18.0105 8.53336 
442 1 4.53501 16.4921 10.6667 
367 1 10.5821 13.5079 6.40002 
368 1 7.55861 13.5079 6.40002 
370 1 12.0938 16.4986 7.4573 
371 2 9.07066 12.0839 6.45762 
372 2 7.62387 13.5322 8.51373 
373 2 10.5174 13.5322 8.51373 
375 2 9.07066 14.9853 6.47213 
378 2 12.0936 14.9319 6.34242 
388 2 12.0936 18.0515 6.32791 
440 1 6.04739 13.5014 9.60941 
441 1 7.55851 16.4921 10.6667 
443 1 9.07031 15 8.53336 
445 2 6.04706 15.0681 10.7243 
448 2 9.06996 15.0147 10.5946 
449 2 6.04706 17.9695 10.7388 
450 2 7.62326 16.4678 8.55299 
451 2 10.5168 16.4678 8.55299 
452 2 9.06996 17.9161 10.6091 
453 1 9.07031 18.0105 8.53336 
722 1 10.582 16.4921 10.6667 
647 1 16.6291 13.5079 6.40002 
648 1 13.6056 13.5079 6.40002 
650 1 18.1408 16.4986 7.4573 
651 2 15.1177 12.0839 6.45762 
652 2 13.6709 13.5322 8.51373 
653 2 16.5644 13.5322 8.51373 
655 2 15.1177 14.9853 6.47213 
658 2 18.1406 14.9319 6.34242 
668 2 18.1406 18.0515 6.32791 
720 1 12.0944 13.5014 9.60941 
721 1 13.6055 16.4921 10.6667 
723 1 15.1173 15 8.53336 
725 2 12.0941 15.0681 10.7243 
728 2 15.117 15.0147 10.5946 
729 2 12.0941 17.9695 10.7388 
730 2 13.6703 16.4678 8.55299 
731 2 16.5638 16.4678 8.55299 
732 2 15.117 17.9161 10.6091 
733 1 15.1173 18.0105 8.53336 
1002 1 16.629 16.4921 10.6667 
927 1 22.6761 13.5079 6.40002 
928 1 19.6526 13.5079 6.40002 
930 1 24.1878 16.4986 7.4573 
931 2 21.1647 12.0839 6.45762 
932 2 19.7179 13.5322 8.51373 
933 2 22.6114 13.5322 8.51373 
935 2 21.1647 14.9853 6.47213 
938 2 24.1876 14.9319 6.34242 
948 2 24.1876 18.0515 6.32791 
1000 1 18.1414 13.5014 9.60941 
1001 1 19.6525 16.4921 10.6667 
1003 1 21.1643 15 8.53336 
1005 2 18.1411 15.0681 10.7243 
1008 2 21.164 15.0147 10.5946 
1009 2 18.1411 17.9695 10.7388 
1010 2 19.7173 16.4678 8.55299 
1011 2 22.6108 16.4678 8.55299 
1012 2 21.164 17.9161 10.6091 
1013 1 21.1643 18.0105 8.53336 
1217 1 22.676 16.4921 10.6667 
1145 1 28.7231 13.5079 6.40002 
1146 1 25.6996 13.5079 6.40002 
1148 1 30.2348 16.4986 7.4573 
1149 2 27.2117 12.0839 6.45762 
1150 2 25.7649 13.5322 8.51373 
1151 2 28.6584 13.5322 8.51373 
1153 2 27.2117 14.9853 6.47213 
1155 2 30.2346 14.9319 6.34242 
1165 2 30.2346 18.0515 6.32791 
1215 1 24.1884 13.5014 9.60941 
1216 1 25.6995 16.4921 10.6667 
1218 1 27.2113 15 8.53336 
1220 2 24.1881 15.0681 10.7243 
1223 2 27.211 15.0147 10.5946 
1224 2 24.1881 17.9695 10.7388 
1225 2 25.7643 16.4678 8.55299 
1226 2 28.6578 16.4678 8.55299 
1227 2 27.211 17.9161 10.6091 
1228 1 27.2113 18.0105 8.53336 
1330 1 28.723 16.4921 10.6667 
176 1 4.53511 19.5289 6.40002 
177 1 1.51161 19.5289 6.40002 
179 1 6.04683 22.5196 7.4573 
180 2 3.02366 18.1049 6.45762 
181 2 1.57687 19.5532 8.51373 
182 2 4.47036 19.5532 8.51373 
184 2 3.02366 21.0063 6.47213 
187 2 6.04656 20.9529 6.34242 
197 2 6.04656 24.0725 6.32791 
243 1 0.000389522 19.5224 9.60941 
244 1 1.51151 22.5131 10.6667 
245 1 3.02331 21.021 8.53336 
247 2 6.22067e-05 21.0891 10.7243 
249 2 3.02296 21.0357 10.5946 
250 2 6.18819e-05 23.9905 10.7388 
251 2 1.57626 22.4888 8.55299 
252 2 4.46975 22.4888 8.55299 
253 2 3.02296 23.9371 10.6091 
254 1 3.02331 24.0315 8.53336 
456 1 4.53501 22.5131 10.6667 
381 1 10.5821 19.5289 6.40002 
382 1 7.55861 19.5289 6.40002 
384 1 12.0938 22.5196 7.4573 
385 2 9.07066 18.1049 6.45762 
386 2 7.62387 19.5532 8.51373 
387 2 10.5174 19.5532 8.51373 
389 2 9.07066 21.0063 6.47213 
392 2 12.0936 20.9529 6.34242 
402 2 12.0936 24.0725 6.32791 
454 1 6.04739 19.5224 9.60941 
455 1 7.55851 22.5131 10.6667 
457 1 9.07031 21.021 8.53336 
459 2 6.04706 21.0891 10.7243 
462 2 9.06996 21.0357 10.5946 
463 2 6.04706 23.9905 10.7388 
464 2 7.62326 22.4888 8.55299 
465 2 10.5168 22.4888 8.55299 
466 2 9.06996 23.9371 10.6091 
467 1 9.07031 24.0315 8.53336 
736 1 10.582 22.5131 10.6667 
661 1 16.6291 19.5289 6.40002 
662 1 13.6056 19.5289 6.40002 
664 1 18.1408 22.5196 7.4573 
665 2 15.1177 18.1049 6.45762 
666 2 13.6709 19.5532 8.51373 
667 2 16.5644 19.5532 8.51373 
669 2 15.1177 21.0063 6.47213 
672 2 18.1406 20.9529 6.34242 
682 2 18.1406 24.0725 6.32791 
734 1 12.0944 19.5224 9.60941 
735 1 13.6055 22.5131 10.6667 
737 1 15.1173 21.021 8.53336 
739 2 12.0941 21.0891 10.7243 
742 2 15.117 21.0357 10.5946 
743 2 12.0941 23.9905 10.7388 
744 2 13.6703 22.4888 8.55299 
745 2 16.5638 22.4888 8.55299 
746 2 15.117 23.9371 10.6091 
747 1 15.1173 24.0315 8.53336 
1016 1 16.629 22.5131 10.6667 
941 1 22.6761 19.5289 6.40002 
942 1 19.6526 19.5289 6.40002 
944 1 24.1878 22.5196 7.4573 
945 2 21.1647 18.1049 6.45762 
946 2 19.7179 19.5532 8.51373 
947 2 22.6114 19.5532 8.51373 
949 2 21.1647 21.0063 6.47213 
952 2 24.1876 20.9529 6.34242 
962 2 24.1876 24.0725 6.32791 
1014 1 18.1414 19.5224 9.60941 
1015 1 19.6525 22.5131 10.6667 
1017 1 21.1643 21.021 8.53336 
1019 2 18.1411 21.0891 10.7243 
1022 2 21.164 21.0357 10.5946 
1023 2 18.1411 23.9905 10.7388 
1024 2 19.7173 22.4888 8.55299 
1025 2 22.6108 22.4888 8.55299 
1026 2 21.164 23.9371 10.6091 
1027 1 21.1643 24.0315 8.53336 
1231 1 22.676 22.5131 10.6667 
1158 1 28.7231 19.5289 6.40002 
1159 1 25.6996 19.5289 6.40002 
1161 1 30.2348 22.5196 7.4573 
1162 2 27.2117 18.1049 6.45762 
1163 2 25.7649 19.5532 8.51373 
1164 2 28.6584 19.5532 8.51373 
1166 2 27.2117 21.0063 6.47213 
1168 2 30.2346 20.9529 6.34242 
1178 2 30.2346 24.0725 6.32791 
1229 1 24.1884 19.5224 9.60941 
1230 1 25.6995 22.5131 10.6667 
1232 1 27.2113 21.021 8.53336 
1234 2 24.1881 21.0891 10.7243 
1237 2 27.211 21.0357 10.5946 
1238 2 24.1881 23.9905 10.7388 
1239 2 25.7643 22.4888 8.55299 
1240 2 28.6578 22.4888 8.55299 
1241 2 27.211 23.9371 10.6091 
1242 1 27.2113 24.0315 8.53336 
1332 1 28.723 22.5131 10.6667 
190 1 4.53511 25.5499 6.40002 
191 1 1.51161 25.5499 6.40002 
193 1 6.04683 28.5406 7.4573 
194 2 3.02366 24.1259 6.45762 
195 2 1.57687 25.5742 8.51373 
196 2 4.47036 25.5742 8.51373 
198 2 3.02366 27.0273 6.47213 
201 2 6.04656 26.9739 6.34242 
205 2 6.04656 30.0935 6.32791 
255 1 0.000389522 25.5434 9.60941 
256 1 1.51151 28.5341 10.6667 
257 1 3.02331 27.042 8.53336 
258 2 6.22067e-05 27.1101 10.7243 
260 2 3.02296 27.0567 10.5946 
261 2 6.18819e-05 30.0115 10.7388 
262 2 1.57626 28.5098 8.55299 
263 2 4.46975 28.5098 8.55299 
264 2 3.02296 29.9581 10.6091 
265 1 3.02331 30.0525 8.53336 
470 1 4.53501 28.5341 10.6667 
395 1 10.5821 25.5499 6.40002 
396 1 7.55861 25.5499 6.40002 
398 1 12.0938 28.5406 7.4573 
399 2 9.07066 24.1259 6.45762 
400 2 7.62387 25.5742 8.51373 
401 2 10.5174 25.5742 8.51373 
403 2 9.07066 27.0273 6.47213 
406 2 12.0936 26.9739 6.34242 
410 2 12.0936 30.0935 6.32791 
468 1 6.04739 25.5434 9.60941 
469 1 7.55851 28.5341 10.6667 
471 1 9.07031 27.042 8.53336 
472 2 6.04706 27.1101 10.7243 
475 2 9.06996 27.0567 10.5946 
476 2 6.04706 30.0115 10.7388 
477 2 7.62326 28.5098 8.55299 
478 2 10.5168 28.5098 8.55299 
479 2 9.06996 29.9581 10.6091 
480 1 9.07031 30.0525 8.53336 
750 1 10.582 28.5341 10.6667 
675 1 16.6291 25.5499 6.40002 
676 1 13.6056 25.5499 6.40002 
678 1 18.1408 28.5406 7.4573 
679 2 15.1177 24.1259 6.45762 
680 2 13.6709 25.5742 8.51373 
681 2 16.5644 25.5742 8.51373 
683 2 15.1177 27.0273 6.47213 
686 2 18.1406 26.9739 6.34242 
690 2 18.1406 30.0935 6.32791 
748 1 12.0944 25.5434 9.60941 
749 1 13.6055 28.5341 10.6667 
751 1 15.1173 27.042 8.53336 
752 2 12.0941 27.1101 10.7243 
755 2 15.117 27.0567 10.5946 
756 2 12.0941 30.0115 10.7388 
757 2 13.6703 28.5098 8.55299 
758 2 16.5638 28.5098 8.55299 
759 2 15.117 29.9581 10.6091 
760 1 15.1173 30.0525 8.53336 
1030 1 16.629 28.5341 10.6667 
955 1 22.6761 25.5499 6.40002 
956 1 19.6526 25.5499 6.40002 
958 1 24.1878 28.5406 7.4573 
959 2 21.1647 24.1259 6.45762 
960 2 19.7179 25.5742 8.51373 
961 2 22.6114 25.5742 8.51373 
963 2 21.1647 27.0273 6.47213 
966 2 24.1876 26.9739 6.34242 
970 2 24.1876 30.0935 6.32791 
1028 1 18.1414 25.5434 9.60941 
1029 1 19.6525 28.5341 10.6667 
1031 1 21.1643 27.042 8.53336 
1032 2 18.1411 27.1101 10.7243 
1035 2 21.164 27.0567 10.5946 
1036 2 18.1411 30.0115 10.7388 
1037 2 19.7173 28.5098 8.55299 
1038 2 22.6108 28.5098 8.55299 
1039 2 21.164 29.9581 10.6091 
1040 1 21.1643 30.0525 8.53336 
1245 1 22.676 28.5341 10.6667 
1171 1 28.7231 25.5499 6.40002 
1172 1 25.6996 25.5499 6.40002 
1174 1 30.2348 28.5406 7.4573 
1175 2 27.2117 24.1259 6.45762 
1176 2 25.7649 25.5742 8.51373 
1177 2 28.6584 25.5742 8.51373 
1179 2 27.2117 27.0273 6.47213 
1181 2 30.2346 26.9739 6.34242 
1185 2 30.2346 30.0935 6.32791 
1243 1 24.1884 25.5434 9.60941 
1244 1 25.6995 28.5341 10.6667 
1246 1 27.2113 27.042 8.53336 
1247 2 24.1881 27.1101 10.7243 
1250 2 27.211 27.0567 10.5946 
1251 2 24.1881 30.0115 10.7388 
1252 2 25.7643 28.5098 8.55299 
1253 2 28.6578 28.5098 8.55299 
1254 2 27.211 29.9581 10.6091 