ITEM: TIMESTEP
0
ITEM: NUMBER OF ATOMS
2553
ITEM: BOX BOUNDS pp pp ss
0.0000000000000000e+00 1.8560400000000001e+01
0.0000000000000000e+00 4.2399999999999999e+01
9.1224069288256371e-01 3.9637940850046256e+01
ITEM: ATOMS id type x y z 
7 1 2.88826 0.866468 3.02921 
52 1 1.35878 3.92691 1.96637 
106 2 1.17159 3.93231 3.99312 
124 2 2.8881 2.58936 1.81634 
178 2 2.8881 5.23782 1.83006 
205 2 1.17137 0.882253 4.25382 
223 1 4.4175 3.92691 1.96624 
241 2 4.60502 3.93231 3.99304 
259 2 4.60437 0.882253 4.25355 
277 1 5.94543 2.40809 4.12435 
295 1 2.88858 3.94695 5.21869 
358 1 5.9462 0.830552 0.916241 
412 2 5.9456 2.6273 2.11163 
466 2 5.94559 5.27674 2.10783 
1454 1 4.4167 0.871924 6.28057 
1410 1 1.35939 0.871918 6.28053 
1376 1 5.94547 3.88617 7.34262 
1199 2 5.94535 2.18144 6.12958 
1238 2 2.8882 2.20972 6.41542 
331 1 9.0029 0.866469 3.02921 
376 1 7.47342 3.92691 1.96637 
430 2 7.28623 3.93231 3.99312 
448 2 9.00274 2.58936 1.81634 
502 2 9.00274 5.23782 1.83006 
528 2 12.06 2.18144 6.12958 
529 2 7.28601 0.882253 4.25383 
547 1 10.5321 3.92691 1.96624 
565 2 10.7197 3.93231 3.99304 
569 2 9.00284 2.20972 6.41542 
583 2 10.719 0.882253 4.25355 
601 1 12.0601 2.40809 4.12435 
619 1 9.00323 3.94695 5.21869 
682 1 12.0608 0.830552 0.916241 
712 1 12.0601 3.88617 7.34262 
735 1 7.47403 0.871918 6.28053 
736 2 12.0602 2.6273 2.11163 
777 1 10.5313 0.871925 6.28057 
790 2 12.0602 5.27673 2.10782 
56 1 18.1748 3.88617 7.34262 
76 1 13.5887 0.871919 6.28053 
103 1 16.646 0.871925 6.28057 
209 2 15.1175 2.20972 6.41542 
385 2 18.1746 2.18144 6.12958 
655 1 15.1175 0.866469 3.02921 
700 1 13.5881 3.92691 1.96637 
754 2 13.4009 3.93231 3.99312 
772 2 15.1174 2.58936 1.81634 
826 2 15.1174 5.23782 1.83006 
853 2 13.4007 0.882252 4.25383 
871 1 16.6468 3.92691 1.96624 
889 2 16.8343 3.93231 3.99304 
907 2 16.8337 0.882253 4.25355 
925 1 18.1747 2.40809 4.12435 
943 1 15.1179 3.94695 5.21869 
1006 1 18.1755 0.830551 0.916241 
1060 2 18.1749 2.6273 2.11163 
1114 2 18.1749 5.27673 2.10782 
313 1 5.94543 5.45236 4.12202 
2014 2 5.9456 8.71565 2.11163 
1960 1 5.9462 6.9189 0.916243 
1906 1 2.88858 10.0353 5.21869 
1888 1 5.94543 8.49645 4.12435 
1870 2 4.60437 6.97061 4.25355 
1852 2 4.60502 10.0207 3.99304 
1834 1 4.4175 10.0153 1.96624 
1816 2 1.17137 6.97061 4.25382 
1735 2 2.8881 8.67771 1.81634 
1732 2 5.94535 8.26979 6.12958 
1717 2 1.17159 10.0207 3.99312 
1663 1 1.35878 10.0153 1.96637 
1634 2 2.8882 8.29807 6.41542 
1627 1 2.88825 6.95482 3.0292 
1076 1 4.4167 6.96028 6.28057 
1360 2 2.8882 5.6513 6.43215 
1157 2 5.94534 5.623 6.14557 
1184 1 1.35939 6.96027 6.28053 
1280 1 5.94546 9.97453 7.34262 
2395 1 10.5313 6.96028 6.28057 
2329 2 12.0602 8.71565 2.11163 
2316 1 7.47403 6.96027 6.28053 
2275 1 12.0608 6.91891 0.916243 
2221 1 9.00323 10.0353 5.21869 
2203 1 12.0601 8.49644 4.12435 
2185 2 10.719 6.97061 4.25355 
2167 2 10.7197 10.0207 3.99304 
2149 1 10.5321 10.0153 1.96624 
2131 2 7.28601 6.97061 4.25383 
2130 1 12.0601 9.97453 7.34262 
2050 2 9.00274 8.67771 1.81634 
2032 2 7.28623 10.0207 3.99312 
495 2 12.06 5.623 6.14557 
1978 1 7.47342 10.0153 1.96637 
1942 1 9.0029 6.95482 3.0292 
1912 2 9.00285 5.6513 6.43215 
637 1 12.0601 5.45236 4.12202 
1591 2 9.00284 8.29807 6.41542 
1511 2 12.06 8.26979 6.12958 
2536 1 15.1179 10.0353 5.21869 
21 2 15.1175 5.6513 6.43215 
2518 1 18.1747 8.49644 4.12435 
2510 1 18.1755 6.9189 0.916242 
2500 2 16.8337 6.97061 4.25355 
2482 2 16.8343 10.0207 3.99304 
2464 1 16.6468 10.0153 1.96624 
2447 2 18.1749 8.71565 2.11163 
2446 2 13.4007 6.97061 4.25383 
2365 2 15.1174 8.67771 1.81634 
2347 2 13.4009 10.0207 3.99312 
213 1 18.1748 9.97453 7.34262 
2293 1 13.5881 10.0153 1.96637 
2257 1 15.1175 6.95482 3.0292 
311 1 13.5887 6.96027 6.28053 
389 1 16.646 6.96028 6.28057 
401 2 15.1175 8.29807 6.41542 
472 2 18.1746 8.26979 6.12958 
525 2 18.1746 5.623 6.14557 
961 1 18.1747 5.45236 4.12202 
2068 2 5.94559 11.3651 2.10782 
1979 1 2.88826 13.0432 3.0292 
1924 1 5.94543 11.5407 4.12202 
1886 2 2.8881 14.7661 1.81634 
1827 2 1.17137 13.059 4.25382 
1798 2 5.94534 11.7114 6.14557 
1789 2 2.8881 11.3262 1.83006 
1764 2 4.60437 13.059 4.25355 
1753 1 5.94543 14.5848 4.12435 
1687 1 5.9462 13.0073 0.916243 
1628 2 5.9456 14.804 2.11163 
1560 1 4.4167 13.0486 6.28057 
1453 1 1.35939 13.0486 6.28053 
1017 2 5.94535 14.3581 6.12958 
1369 2 2.8882 11.7396 6.43215 
1127 2 2.8882 14.3864 6.41542 
142 2 9.00285 11.7396 6.43215 
2383 2 12.0602 11.3651 2.10783 
170 2 9.00284 14.3864 6.41542 
210 2 12.06 14.3581 6.12958 
218 1 7.47403 13.0486 6.28053 
260 1 10.5313 13.0486 6.28057 
2239 1 12.0601 11.5407 4.12202 
2104 2 9.00274 11.3262 1.83006 
1701 1 9.0029 13.0432 3.0292 
1597 2 9.00274 14.7661 1.81634 
1520 2 7.28601 13.059 4.25383 
1473 2 10.719 13.059 4.25355 
1450 1 12.0601 14.5848 4.12435 
1443 2 12.06 11.7114 6.14557 
1385 1 12.0608 13.0073 0.916243 
1333 2 12.0602 14.804 2.11163 
2551 1 18.1747 11.5407 4.12202 
2419 2 15.1174 11.3262 1.83006 
2401 2 18.1749 11.3651 2.10783 
558 2 18.1746 11.7114 6.14557 
885 1 16.646 13.0486 6.28057 
903 1 13.5887 13.0486 6.28053 
935 2 15.1175 11.7396 6.43215 
1037 2 18.1749 14.804 2.11163 
1038 2 15.1175 14.3864 6.41542 
1071 1 18.1755 13.0073 0.916242 
1074 2 18.1746 14.3581 6.12958 
1395 1 15.1175 13.0432 3.0292 
1131 1 18.1747 14.5848 4.12435 
1151 2 16.8337 13.059 4.25355 
1302 2 15.1174 14.7661 1.81634 
1215 2 13.4007 13.059 4.25383 
12 2 5.9456 20.8924 2.11163 
85 1 5.9462 19.0956 0.916243 
174 1 5.94543 20.6732 4.12435 
199 2 4.60437 19.1473 4.25355 
257 2 1.17137 19.1473 4.25382 
344 2 2.8881 20.8544 1.81634 
475 1 2.88825 19.1315 3.0292 
1953 1 1.35878 16.1036 1.96637 
1900 2 1.17159 16.109 3.99312 
1851 2 2.8881 17.4145 1.83006 
1806 1 4.4175 16.1036 1.96624 
1785 2 4.60502 16.109 3.99304 
719 2 5.94535 20.4465 6.12958 
1741 1 2.88858 16.1237 5.21869 
1722 1 5.94543 17.6291 4.12202 
783 2 2.8882 20.4748 6.41542 
1578 2 5.94559 17.4534 2.10783 
1009 2 5.94534 17.7997 6.14557 
1023 2 2.8882 17.828 6.43215 
1412 1 5.94547 16.0629 7.34262 
1156 1 1.35939 19.137 6.28053 
1262 1 4.4167 19.137 6.28057 
25 2 9.00274 20.8544 1.81634 
99 1 10.5313 19.137 6.28057 
104 1 7.47403 19.137 6.28053 
110 1 9.0029 19.1315 3.0292 
141 2 9.00285 17.828 6.43215 
171 2 7.28601 19.1473 4.25383 
192 2 9.00284 20.4748 6.41542 
201 1 12.0601 16.0629 7.34262 
230 2 10.719 19.1473 4.25355 
233 2 12.06 20.4465 6.12958 
251 1 12.0601 20.6732 4.12435 
280 2 12.06 17.7997 6.14557 
334 1 12.0608 19.0956 0.916243 
409 2 12.0602 20.8924 2.11163 
1667 1 7.47342 16.1036 1.96637 
1612 2 7.28623 16.109 3.99312 
1539 2 9.00274 17.4145 1.83006 
1501 1 10.5321 16.1036 1.96624 
1483 2 10.7197 16.109 3.99304 
1429 1 9.00323 16.1237 5.21869 
1413 1 12.0601 17.6291 4.12202 
1275 2 12.0602 17.4534 2.10783 
318 1 15.1175 19.1315 3.0292 
449 2 15.1174 20.8544 1.81634 
551 2 13.4007 19.1473 4.25383 
591 1 16.646 19.137 6.28057 
620 2 16.8337 19.1473 4.25355 
625 1 13.5887 19.137 6.28053 
653 1 18.1747 20.6732 4.12435 
669 2 15.1175 17.828 6.43215 
723 2 15.1175 20.4748 6.41542 
747 2 18.1746 20.4465 6.12958 
758 1 18.1755 19.0956 0.916242 
833 2 18.1749 20.8924 2.11163 
916 1 18.1748 16.0629 7.34262 
981 2 18.1749 17.4534 2.10783 
1096 1 18.1747 17.6291 4.12202 
1103 2 18.1746 17.7997 6.14557 
1120 1 15.1179 16.1237 5.21869 
1361 1 13.5881 16.1036 1.96637 
1310 2 13.4009 16.109 3.99312 
1176 2 16.8343 16.109 3.99304 
1191 1 16.6468 16.1036 1.96624 
1244 2 15.1174 17.4145 1.83006 
53 2 5.94559 23.5418 2.10783 
135 1 5.94543 23.7174 4.12202 
157 1 2.88858 22.212 5.21869 
217 2 4.60502 22.1974 3.99304 
237 1 4.4175 22.192 1.96624 
284 2 2.8881 23.5029 1.83006 
366 2 1.17159 22.1974 3.99312 
429 1 1.35878 22.192 1.96637 
1910 1 5.9462 25.184 0.916243 
626 2 5.94534 23.8881 6.14557 
1784 2 4.60437 25.2357 4.25355 
1704 2 1.17137 25.2357 4.25382 
1652 2 2.8882 23.9164 6.43215 
1613 1 1.35939 25.2253 6.28053 
1604 1 4.4167 25.2253 6.28057 
1479 1 2.88825 25.2199 3.0292 
1097 1 5.94547 22.1512 7.34262 
3 2 7.28623 22.1974 3.99312 
65 1 7.47342 22.192 1.96637 
122 2 9.00274 23.5029 1.83006 
128 1 12.0601 22.1512 7.34262 
189 1 10.5321 22.192 1.96624 
211 2 10.7197 22.1974 3.99304 
2273 1 12.0608 25.184 0.916243 
270 1 9.00323 22.212 5.21869 
278 2 12.06 23.8881 6.14557 
300 1 12.0601 23.7174 4.12202 
2188 2 10.719 25.2357 4.25355 
2122 2 7.28601 25.2357 4.25383 
2101 2 9.00285 23.9164 6.43215 
2074 1 7.47403 25.2253 6.28053 
2046 1 10.5313 25.2253 6.28057 
480 2 12.0602 23.5418 2.10783 
1883 1 9.0029 25.2199 3.0292 
2547 2 16.8337 25.2357 4.25355 
2545 2 15.1175 23.9164 6.43215 
2504 1 13.5887 25.2253 6.28053 
2485 1 16.646 25.2253 6.28057 
2456 2 13.4007 25.2357 4.25383 
2435 1 18.1755 25.184 0.916242 
2260 1 15.1175 25.2199 3.0292 
353 1 13.5881 22.192 1.96637 
426 2 13.4009 22.1974 3.99312 
518 2 15.1174 23.5029 1.83006 
574 1 16.6468 22.192 1.96624 
599 2 16.8343 22.1974 3.99304 
641 1 18.1748 22.1512 7.34262 
677 1 15.1179 22.212 5.21869 
692 1 18.1747 23.7174 4.12202 
770 2 18.1746 23.8881 6.14557 
887 2 18.1749 23.5418 2.10782 
9 1 2.88826 31.3082 3.02921 
207 2 1.17137 31.324 4.25382 
261 2 4.60437 31.324 4.25355 
360 1 5.9462 31.2723 0.916241 
2047 2 5.94559 29.6301 2.10783 
1987 2 5.9456 26.9807 2.11163 
1871 1 5.94543 29.8058 4.12202 
1849 1 2.88858 28.3004 5.21869 
1820 1 5.94543 26.7615 4.12435 
1795 2 5.94534 29.9764 6.14557 
1770 2 5.94535 26.5349 6.12958 
1760 2 4.60502 28.2857 3.99304 
1747 2 2.8882 26.5631 6.41542 
1746 1 4.4175 28.2803 1.96624 
1688 2 2.8881 29.5912 1.83006 
1642 1 5.94546 28.2396 7.34262 
1614 2 2.8881 26.9428 1.81634 
1596 2 1.17159 28.2857 3.99312 
1522 1 1.35878 28.2803 1.96637 
1448 1 4.4167 31.3137 6.28057 
1406 1 1.35939 31.3137 6.28053 
1340 2 2.88821 30.0047 6.43215 
2388 2 12.0602 29.6301 2.10783 
2337 2 12.0602 26.9807 2.11163 
2244 1 12.0601 29.8058 4.12202 
2231 1 9.00323 28.3004 5.21869 
2219 2 12.06 29.9764 6.14557 
2202 1 12.0601 26.7615 4.12435 
2189 2 12.06 26.5349 6.12958 
333 1 9.0029 31.3082 3.02921 
2166 2 10.7197 28.2857 3.99304 
2163 2 9.00284 26.5631 6.41542 
2137 1 10.5321 28.2803 1.96624 
2095 2 9.00274 29.5912 1.83006 
2087 1 12.0601 28.2396 7.34262 
2026 2 9.00274 26.9428 1.81634 
2008 2 7.28623 28.2857 3.99312 
531 2 7.28601 31.324 4.25383 
1940 1 7.47342 28.2803 1.96637 
585 2 10.719 31.324 4.25355 
673 2 9.00285 30.0047 6.43215 
684 1 12.0608 31.2723 0.916241 
733 1 7.47403 31.3137 6.28053 
776 1 10.5313 31.3137 6.28057 
2535 1 18.1747 26.7615 4.12435 
29 2 15.1175 30.0047 6.43215 
2526 1 18.1748 28.2396 7.34262 
2522 2 16.8343 28.2857 3.99304 
2515 1 15.1179 28.3004 5.21869 
2509 2 15.1175 26.5631 6.41542 
2494 1 16.6468 28.2803 1.96624 
2493 1 18.1747 29.8058 4.12202 
74 1 13.5887 31.3137 6.28053 
2467 2 18.1746 26.5349 6.12958 
2449 2 18.1746 29.9764 6.14557 
102 1 16.646 31.3137 6.28057 
2432 2 15.1174 29.5912 1.83006 
2373 2 15.1174 26.9428 1.81634 
2355 2 13.4009 28.2857 3.99312 
2341 2 18.1749 26.9807 2.11163 
2303 1 13.5881 28.2803 1.96637 
2261 2 18.1749 29.6301 2.10783 
657 1 15.1175 31.3082 3.02921 
855 2 13.4007 31.324 4.25383 
909 2 16.8337 31.324 4.25355 
1008 1 18.1755 31.2723 0.916241 
54 1 1.35878 34.3687 1.96637 
108 2 1.17159 34.3741 3.99312 
126 2 2.8881 33.0311 1.81634 
180 2 2.8881 35.6796 1.83006 
225 1 4.4175 34.3687 1.96624 
243 2 4.60502 34.3741 3.99304 
279 1 5.94543 32.8499 4.12435 
297 1 2.88858 34.3887 5.21869 
315 1 5.94543 35.8941 4.12202 
414 2 5.9456 33.0691 2.11163 
468 2 5.94559 35.7185 2.10783 
1386 2 2.8882 36.0931 6.43215 
1373 1 5.94547 34.3279 7.34262 
1149 2 5.94534 36.0648 6.14557 
1193 2 5.94535 32.6232 6.12958 
1231 2 2.8882 32.6515 6.41542 
378 1 7.47342 34.3687 1.96637 
432 2 7.28623 34.3741 3.99312 
450 2 9.00274 33.0311 1.81634 
490 2 12.06 36.0648 6.14557 
504 2 9.00274 35.6796 1.83006 
522 2 12.06 32.6232 6.12958 
549 1 10.5321 34.3687 1.96624 
563 2 9.00284 32.6515 6.41542 
567 2 10.7197 34.3741 3.99304 
603 1 12.0601 32.8499 4.12435 
1885 2 9.00285 36.0931 6.43215 
621 1 9.00323 34.3887 5.21869 
639 1 12.0601 35.8941 4.12202 
704 1 12.0601 34.3279 7.34262 
738 2 12.0602 33.0691 2.11163 
792 2 12.0602 35.7185 2.10782 
47 2 15.1175 36.0931 6.43215 
50 1 18.1748 34.3279 7.34262 
253 2 15.1175 32.6515 6.41542 
394 2 18.1746 32.6232 6.12958 
537 2 18.1746 36.0648 6.14557 
702 1 13.5881 34.3687 1.96637 
756 2 13.4009 34.3741 3.99312 
774 2 15.1174 33.0311 1.81634 
828 2 15.1174 35.6796 1.83006 
873 1 16.6468 34.3687 1.96624 
891 2 16.8343 34.3741 3.99304 
927 1 18.1747 32.8499 4.12435 
945 1 15.1179 34.3887 5.21869 
963 1 18.1747 35.8941 4.12202 
1062 2 18.1749 33.0691 2.11163 
1116 2 18.1749 35.7185 2.10782 
2070 2 5.94559 41.8069 2.10782 
2016 2 5.9456 39.1574 2.11163 
1962 1 5.9462 37.3607 0.916243 
1926 1 5.94543 41.9825 4.12202 
1908 1 2.88858 40.4771 5.21869 
1890 1 5.94543 38.9382 4.12435 
1872 2 4.60437 37.4124 4.25355 
1854 2 4.60502 40.4624 3.99304 
1836 1 4.4175 40.457 1.96624 
1818 2 1.17137 37.4124 4.25382 
1803 2 5.94534 42.1531 6.14557 
1791 2 2.8881 41.7679 1.83006 
1737 2 2.8881 39.1195 1.81634 
1736 2 5.94535 38.7116 6.12958 
1719 2 1.17159 40.4624 3.99312 
1665 1 1.35878 40.457 1.96637 
1656 2 2.8882 38.7398 6.41542 
1629 1 2.88825 37.3966 3.0292 
1081 1 4.4167 37.4021 6.28057 
1350 2 2.8882 42.1814 6.43215 
1303 1 5.94546 40.4163 7.34262 
1200 1 1.35939 37.402 6.28053 
117 2 9.00285 42.1814 6.43215 
2392 1 10.5313 37.4021 6.28057 
2385 2 12.0602 41.8069 2.10783 
2331 2 12.0602 39.1574 2.11163 
2307 1 7.47403 37.402 6.28053 
2277 1 12.0608 37.3607 0.916243 
2241 1 12.0601 41.9825 4.12202 
2223 1 9.00323 40.4771 5.21869 
2205 1 12.0601 38.9382 4.12435 
2187 2 10.719 37.4124 4.25355 
2169 2 10.7197 40.4624 3.99304 
2151 1 10.5321 40.457 1.96624 
2133 2 7.28601 37.4124 4.25383 
2109 1 12.0601 40.4163 7.34262 
2106 2 9.00274 41.7679 1.83006 
2052 2 9.00274 39.1195 1.81634 
2034 2 7.28623 40.4624 3.99312 
1980 1 7.47342 40.457 1.96637 
1944 1 9.0029 37.3966 3.0292 
1576 2 9.00284 38.7398 6.41542 
1504 2 12.06 38.7116 6.12958 
1437 2 12.06 42.1531 6.14557 
2548 1 18.1747 41.9825 4.12202 
2538 1 15.1179 40.4771 5.21869 
2520 1 18.1747 38.9382 4.12435 
2508 1 18.1755 37.3607 0.916242 
2502 2 16.8337 37.4124 4.25355 
2484 2 16.8343 40.4624 3.99304 
2466 1 16.6468 40.457 1.96624 
2448 2 13.4007 37.4124 4.25383 
2440 2 18.1749 39.1574 2.11163 
2421 2 15.1174 41.7679 1.83006 
2400 2 18.1749 41.8069 2.10783 
2367 2 15.1174 39.1195 1.81634 
2349 2 13.4009 40.4624 3.99312 
204 1 18.1748 40.4163 7.34262 
2295 1 13.5881 40.457 1.96637 
2259 1 15.1175 37.3966 3.0292 
294 1 13.5887 37.402 6.28053 
375 1 16.646 37.4021 6.28057 
415 2 15.1175 38.7398 6.41542 
494 2 18.1746 38.7116 6.12958 
578 2 18.1746 42.1531 6.14557 
964 2 15.1175 42.1814 6.43215 
275 2 5.94543 5.22735 10.7299 
343 2 5.94543 2.58052 10.7465 
452 1 5.94581 0.875711 9.53314 
1862 1 2.88805 0.815473 11.6571 
1848 2 1.17155 3.88055 12.622 
1826 2 1.17111 0.828237 12.8827 
1809 2 4.60468 3.88055 12.622 
1725 2 4.60424 0.828238 12.8825 
1699 1 5.94524 2.35439 12.7523 
803 1 4.4166 3.88976 10.5951 
869 2 2.88793 5.19898 10.4437 
895 2 4.22853 3.89903 8.56835 
926 2 1.54701 3.89903 8.56806 
993 2 2.88793 2.55215 10.4603 
1064 1 2.88801 2.38088 8.43779 
1090 1 1.35929 3.88976 10.5951 
1311 2 1.54746 0.862804 8.30758 
1266 2 4.22896 0.862806 8.30765 
130 1 10.5312 3.88976 10.5951 
167 2 9.00258 5.19898 10.4437 
197 2 10.3432 3.89903 8.56835 
245 2 7.66166 3.89903 8.56806 
305 2 9.00258 2.55215 10.4603 
380 1 9.00266 2.38088 8.43779 
421 1 7.47393 3.88976 10.5951 
608 2 10.3436 0.862806 8.30765 
646 2 7.6621 0.862803 8.30758 
678 1 12.0605 0.875711 9.53314 
1637 1 9.00269 0.815473 11.6571 
1632 2 7.28619 3.88055 12.622 
1618 2 7.28575 0.828238 12.8827 
1590 2 10.7193 3.88055 12.622 
1500 2 10.7189 0.828238 12.8825 
1472 1 12.0599 2.35439 12.7523 
1087 2 12.0601 2.58052 10.7465 
1279 2 12.0601 5.22735 10.7299 
4 2 13.7767 0.862803 8.30758 
95 2 16.4582 0.862806 8.30765 
2378 1 18.1751 0.875711 9.53314 
2132 2 18.1747 2.58052 10.7465 
2001 2 18.1747 5.22735 10.7299 
1774 1 16.6459 3.88976 10.5951 
840 1 13.5886 3.88976 10.5951 
1567 2 15.1172 5.19898 10.4437 
957 1 15.1173 2.38088 8.43779 
1484 2 16.4578 3.89903 8.56835 
1390 1 15.1173 0.815473 11.6571 
1371 2 13.7763 3.89903 8.56806 
1351 2 13.4008 3.88055 12.622 
1338 2 13.4004 0.828237 12.8827 
1332 2 16.834 3.88055 12.622 
1175 2 15.1172 2.55215 10.4603 
1196 1 18.1745 2.35439 12.7523 
1239 2 16.8335 0.828238 12.8825 
2487 1 4.4166 9.97811 10.5951 
2288 2 4.22853 9.98738 8.56835 
2210 2 1.54701 9.98738 8.56806 
2062 2 2.88793 8.64051 10.4603 
1943 1 2.88802 8.46923 8.43779 
1894 1 1.35929 9.97812 10.5951 
607 1 5.94524 8.44275 12.7523 
636 2 4.60424 6.91659 12.8825 
749 2 4.60468 9.9689 12.622 
765 2 1.17111 6.91659 12.8827 
771 2 1.17155 9.9689 12.622 
1675 1 5.94524 5.39857 12.7523 
798 1 2.88805 6.90383 11.6571 
839 1 2.88802 5.42507 8.43799 
1548 2 4.22896 6.95116 8.30765 
1456 2 1.54746 6.95116 8.30758 
1105 2 5.94543 8.66887 10.7465 
1379 1 5.94581 6.96406 9.53314 
147 1 9.00266 5.42507 8.43799 
327 1 12.0599 8.44275 12.7523 
364 2 10.7189 6.91659 12.8825 
469 1 10.5312 9.97811 10.5951 
492 2 10.7193 9.9689 12.622 
506 2 7.28575 6.91659 12.8827 
519 2 7.28619 9.9689 12.622 
530 1 9.00269 6.90383 11.6571 
596 1 12.0605 6.96406 9.53314 
1772 2 7.6621 6.95116 8.30758 
737 2 10.3432 9.98738 8.56835 
1684 2 10.3436 6.95116 8.30765 
835 2 7.66166 9.98738 8.56806 
846 2 12.0601 8.66887 10.7465 
1036 2 9.00258 8.64051 10.4603 
1430 1 12.0599 5.39857 12.7523 
1300 1 7.47393 9.97812 10.5951 
1219 1 9.00266 8.46923 8.43779 
91 1 18.1745 8.44275 12.7523 
125 2 16.8335 6.91659 12.8825 
2406 2 18.1747 8.66887 10.7465 
216 2 16.834 9.9689 12.622 
219 2 13.7767 6.95116 8.30758 
228 2 13.4004 6.91659 12.8827 
247 2 13.4008 9.9689 12.622 
255 1 15.1173 6.90383 11.6571 
2172 1 18.1751 6.96406 9.53314 
350 2 16.4582 6.95116 8.30765 
752 1 13.5886 9.97812 10.5951 
1669 1 15.1173 5.42507 8.43799 
817 1 15.1173 8.46923 8.43779 
986 2 15.1172 8.64051 10.4603 
1423 1 16.6459 9.97811 10.5951 
1135 2 13.7763 9.98738 8.56806 
1174 1 18.1745 5.39857 12.7523 
1241 2 16.4578 9.98738 8.56835 
2468 1 2.88802 11.5134 8.43799 
2372 2 2.88793 11.2873 10.4437 
227 1 2.88805 12.9922 11.6571 
252 2 1.17111 13.0049 12.8827 
310 1 5.94581 13.0524 9.53314 
368 2 4.60424 13.0049 12.8825 
398 1 5.94524 14.5311 12.7523 
484 2 5.94543 14.7572 10.7465 
568 1 5.94524 11.4869 12.7523 
701 2 2.88793 14.7289 10.4603 
894 1 2.88801 14.5576 8.43779 
940 2 5.94543 11.3157 10.7299 
1163 2 4.22896 13.0395 8.30765 
1234 2 1.54746 13.0395 8.30758 
42 2 7.6621 13.0395 8.30758 
68 2 10.3436 13.0395 8.30765 
307 1 12.0599 11.4869 12.7523 
460 1 9.00269 12.9922 11.6571 
478 1 9.00266 14.5576 8.43779 
488 2 7.28575 13.0049 12.8827 
576 1 9.00266 11.5134 8.43799 
580 2 10.7189 13.0049 12.8825 
597 2 9.00257 14.7289 10.4603 
611 1 12.0599 14.5311 12.7523 
643 2 9.00258 11.2873 10.4437 
1048 2 12.0601 11.3157 10.7299 
1115 1 12.0605 13.0524 9.53314 
1269 2 12.0601 14.7572 10.7465 
63 1 18.1745 11.4869 12.7523 
2474 2 18.1747 11.3157 10.7299 
2353 2 18.1747 14.7572 10.7465 
2225 1 18.1751 13.0524 9.53314 
685 1 15.1173 12.9922 11.6571 
718 2 13.4004 13.0049 12.8827 
832 2 16.8335 13.0049 12.8825 
850 1 18.1745 14.5311 12.7523 
1000 2 13.7767 13.0395 8.30758 
1014 2 16.4582 13.0395 8.30765 
1324 1 15.1173 11.5134 8.43799 
1285 2 15.1172 14.7289 10.4603 
1276 2 15.1172 11.2873 10.4437 
1225 1 15.1173 14.5576 8.43779 
71 2 2.88793 20.8172 10.4603 
232 2 1.17155 16.0573 12.622 
266 2 4.60468 16.0573 12.622 
286 1 5.94581 19.1408 9.53314 
299 1 2.88802 20.6459 8.43779 
328 1 4.4166 16.0665 10.5951 
382 2 5.94543 20.8456 10.7465 
416 1 5.94524 17.5753 12.7523 
423 1 2.88802 17.6018 8.43799 
458 2 2.88793 17.3757 10.4437 
555 2 4.22853 16.0757 8.56835 
592 2 1.54701 16.0757 8.56806 
667 2 5.94543 17.4041 10.7299 
859 2 4.22896 19.1279 8.30765 
919 1 1.35929 16.0665 10.5951 
929 2 1.54746 19.1279 8.30758 
1100 1 2.88805 19.0805 11.6571 
1118 2 1.17111 19.0933 12.8827 
1213 2 4.60424 19.0933 12.8825 
1236 1 5.94524 20.6195 12.7523 
159 2 7.6621 19.1279 8.30758 
179 2 10.3436 19.1279 8.30765 
349 1 9.00266 20.6459 8.43779 
388 1 7.47393 16.0665 10.5951 
408 2 9.00258 20.8172 10.4603 
479 2 7.28619 16.0573 12.622 
501 2 10.7193 16.0573 12.622 
642 1 12.0599 17.5753 12.7523 
689 2 7.66166 16.0757 8.56806 
791 2 10.3432 16.0757 8.56835 
799 1 12.0605 19.1408 9.53314 
829 2 9.00258 17.3757 10.4437 
851 1 9.00266 17.6018 8.43799 
868 2 12.0601 20.8456 10.7465 
872 1 10.5312 16.0665 10.5951 
1416 1 12.0599 20.6195 12.7523 
1397 2 10.7189 19.0933 12.8825 
1339 2 12.0601 17.4041 10.7299 
1308 2 7.28575 19.0933 12.8827 
1283 1 9.00269 19.0805 11.6571 
2453 2 18.1747 17.4041 10.7299 
680 2 13.7767 19.1279 8.30758 
695 2 16.4582 19.1279 8.30765 
697 2 13.4008 16.0573 12.622 
731 2 16.834 16.0573 12.622 
1693 1 16.6459 16.0665 10.5951 
1649 1 18.1745 20.6195 12.7523 
1615 2 16.8335 19.0933 12.8825 
1606 1 15.1173 17.6018 8.43799 
842 1 15.1173 20.6459 8.43779 
865 1 18.1745 17.5753 12.7523 
875 2 15.1172 20.8172 10.4603 
1547 2 15.1172 17.3757 10.4437 
1508 2 13.4004 19.0933 12.8827 
1487 1 15.1173 19.0805 11.6571 
1439 2 16.4578 16.0757 8.56835 
1067 1 18.1751 19.1408 9.53314 
1092 2 18.1747 20.8456 10.7465 
1380 2 13.7763 16.0757 8.56806 
1132 1 13.5886 16.0665 10.5951 
15 2 1.54701 22.1641 8.56806 
18 2 4.22853 22.1641 8.56835 
46 2 2.88793 23.464 10.4437 
58 1 2.88802 23.6901 8.43799 
64 1 4.4166 22.1548 10.5951 
2232 1 5.94581 25.2291 9.53314 
392 1 1.35929 22.1548 10.5951 
2096 2 4.60424 25.1817 12.8825 
439 2 5.94543 23.4924 10.7299 
2025 2 1.17111 25.1817 12.8827 
2004 1 2.88805 25.1689 11.6571 
1707 2 4.22896 25.2162 8.30765 
1691 2 1.54746 25.2162 8.30758 
1109 2 1.17155 22.1456 12.622 
1128 2 4.60468 22.1456 12.622 
1260 1 5.94524 23.6636 12.7523 
2413 1 12.0605 25.2291 9.53314 
2310 2 10.7189 25.1817 12.8825 
2207 2 7.28575 25.1817 12.8827 
2190 1 9.00269 25.1689 11.6571 
323 1 7.47393 22.1548 10.5951 
2156 2 10.3436 25.2162 8.30765 
2114 2 7.6621 25.2162 8.30758 
470 2 7.66166 22.1641 8.56806 
491 2 10.3432 22.1641 8.56835 
516 2 9.00258 23.464 10.4437 
540 1 9.00266 23.6901 8.43799 
572 1 10.5312 22.1548 10.5951 
912 2 12.0601 23.4924 10.7299 
1442 1 12.0599 23.6636 12.7523 
1318 2 10.7193 22.1456 12.622 
1292 2 7.28619 22.1456 12.622 
2552 2 16.8335 25.1817 12.8825 
2542 2 13.7767 25.2162 8.30758 
2521 2 16.4582 25.2162 8.30765 
2422 2 13.4004 25.1817 12.8827 
2386 1 15.1173 25.1689 11.6571 
2152 1 18.1751 25.2291 9.53314 
1680 1 18.1745 23.6636 12.7523 
816 1 13.5886 22.1548 10.5951 
1521 2 16.834 22.1456 12.622 
923 2 13.7763 22.1641 8.56806 
947 2 16.4578 22.1641 8.56835 
949 2 15.1172 23.464 10.4437 
1492 2 13.4008 22.1456 12.622 
971 1 15.1173 23.6901 8.43799 
994 1 16.6459 22.1548 10.5951 
1126 2 18.1747 23.4924 10.7299 
2351 2 5.94543 29.5808 10.7299 
2290 2 5.94543 26.9339 10.7465 
2158 1 5.94524 29.752 12.7523 
2123 1 5.94524 26.7078 12.7523 
445 1 5.94581 31.3175 9.53314 
2031 1 4.4166 28.2432 10.5951 
2027 2 4.60468 28.234 12.622 
2018 2 1.17155 28.234 12.622 
2010 1 2.88801 29.7785 8.43799 
2006 2 2.88793 29.5524 10.4437 
1974 2 4.22853 28.2524 8.56835 
1954 2 1.54701 28.2524 8.56806 
1909 2 2.88793 26.9056 10.4603 
1859 1 2.88801 26.7343 8.43779 
1857 1 2.88805 31.2572 11.6571 
1840 1 1.35929 28.2432 10.5951 
1825 2 1.17111 31.27 12.8827 
1724 2 4.60424 31.27 12.8825 
1305 2 1.54746 31.3046 8.30758 
1264 2 4.22896 31.3046 8.30765 
2450 1 10.5312 28.2432 10.5951 
2443 1 9.00266 29.7785 8.43799 
2411 2 9.00257 29.5524 10.4437 
2370 2 12.0601 26.9339 10.7465 
2369 2 10.3432 28.2524 8.56835 
2364 2 7.66166 28.2524 8.56806 
2358 1 12.0599 29.752 12.7523 
2335 2 12.0601 29.5808 10.7299 
2326 1 12.0599 26.7078 12.7523 
2315 2 9.00258 26.9056 10.4603 
2279 1 9.00266 26.7343 8.43779 
2267 1 7.47393 28.2432 10.5951 
2229 2 10.7193 28.234 12.622 
2197 2 7.28619 28.234 12.622 
600 2 10.3436 31.3046 8.30765 
644 2 7.6621 31.3046 8.30758 
716 1 12.0605 31.3175 9.53314 
1633 1 9.00269 31.2572 11.6571 
1617 2 7.28575 31.27 12.8827 
1499 2 10.7189 31.27 12.8825 
2 2 13.7767 31.3046 8.30758 
2516 1 18.1745 26.7078 12.7523 
2472 1 18.1745 29.752 12.7523 
2428 2 16.834 28.234 12.622 
112 2 16.4582 31.3046 8.30765 
2410 2 13.4008 28.234 12.622 
2408 1 13.5886 28.2432 10.5951 
2384 1 15.1173 26.7343 8.43779 
2361 1 18.1751 31.3175 9.53314 
2342 2 15.1172 26.9056 10.4603 
2320 2 13.7763 28.2524 8.56806 
2313 2 16.4578 28.2524 8.56835 
2301 2 15.1172 29.5524 10.4437 
2268 1 15.1173 29.7785 8.43799 
2256 1 16.6459 28.2432 10.5951 
2107 2 18.1747 26.9339 10.7465 
2083 2 18.1747 29.5808 10.7299 
1382 1 15.1173 31.2572 11.6571 
1336 2 13.4004 31.27 12.8827 
1237 2 16.8335 31.27 12.8825 
271 2 5.94543 35.6691 10.7299 
336 2 5.94543 33.0223 10.7465 
1835 2 1.17155 34.3223 12.622 
1807 2 4.60468 34.3223 12.622 
1692 1 5.94524 32.7962 12.7523 
1674 1 5.94524 35.8403 12.7523 
801 1 4.4166 34.3315 10.5951 
838 1 2.88802 35.8668 8.43799 
866 2 2.88793 35.6408 10.4437 
888 2 4.22853 34.3408 8.56835 
914 2 1.54701 34.3408 8.56806 
984 2 2.88793 32.9939 10.4603 
1059 1 2.88801 32.8227 8.43779 
1089 1 1.35929 34.3315 10.5951 
127 1 10.5312 34.3315 10.5951 
145 1 9.00266 35.8668 8.43799 
162 2 9.00258 35.6408 10.4437 
194 2 10.3432 34.3408 8.56835 
240 2 7.66166 34.3408 8.56806 
301 2 9.00258 32.9939 10.4603 
372 1 9.00266 32.8227 8.43779 
417 1 7.47393 34.3315 10.5951 
1630 2 7.28619 34.3223 12.622 
1589 2 10.7193 34.3223 12.622 
1471 1 12.0599 32.7962 12.7523 
1428 1 12.0599 35.8403 12.7523 
1091 2 12.0601 33.0223 10.7465 
1293 2 12.0601 35.6691 10.7299 
2124 2 18.1747 33.0223 10.7465 
1994 2 18.1747 35.6691 10.7299 
1788 1 16.6459 34.3315 10.5951 
1679 1 15.1173 35.8668 8.43799 
1584 2 15.1172 35.6408 10.4437 
857 1 13.5886 34.3315 10.5951 
1493 2 16.4578 34.3408 8.56835 
978 1 15.1173 32.8227 8.43779 
1388 2 13.7763 34.3408 8.56806 
1346 2 13.4008 34.3223 12.622 
1331 2 16.834 34.3223 12.622 
1167 1 18.1745 35.8403 12.7523 
1190 2 15.1172 32.9939 10.4603 
1195 1 18.1745 32.7962 12.7523 
2481 1 2.88802 41.9552 8.43799 
2476 1 4.4166 40.4199 10.5951 
2376 2 2.88793 41.7291 10.4437 
2294 2 4.22853 40.4292 8.56835 
2224 2 1.54701 40.4292 8.56806 
2069 2 2.88793 39.0823 10.4603 
1955 1 2.88802 38.911 8.43779 
566 1 5.94524 41.9287 12.7523 
1902 1 1.35929 40.4199 10.5951 
602 1 5.94524 38.8845 12.7523 
635 2 4.60424 37.3584 12.8825 
746 2 4.60468 40.4107 12.622 
764 2 1.17111 37.3584 12.8827 
769 2 1.17155 40.4107 12.622 
797 1 2.88805 37.3456 11.6571 
1558 2 4.22896 37.3929 8.30765 
937 2 5.94543 41.7575 10.7299 
1467 2 1.54746 37.3929 8.30758 
1102 2 5.94543 39.1106 10.7465 
1366 1 5.94581 37.4058 9.53314 
304 1 12.0599 41.9287 12.7523 
326 1 12.0599 38.8845 12.7523 
362 2 10.7189 37.3584 12.8825 
462 1 10.5312 40.4199 10.5951 
485 2 10.7193 40.4107 12.622 
505 2 7.28575 37.3584 12.8827 
517 2 7.28619 40.4107 12.622 
526 1 9.00269 37.3456 11.6571 
560 1 9.00266 41.9552 8.43799 
613 1 12.0605 37.4058 9.53314 
634 2 9.00258 41.7291 10.4437 
1762 2 7.6621 37.3929 8.30758 
727 2 10.3432 40.4292 8.56835 
1659 2 10.3436 37.3929 8.30765 
823 2 7.66166 40.4292 8.56806 
854 2 12.0601 39.1106 10.7465 
1034 2 9.00258 39.0823 10.4603 
1052 2 12.0601 41.7575 10.7299 
1291 1 7.47393 40.4199 10.5951 
1206 1 9.00266 38.911 8.43779 
61 1 18.1745 41.9287 12.7523 
2489 2 18.1747 41.7575 10.7299 
83 1 18.1745 38.8845 12.7523 
111 2 16.8335 37.3584 12.8825 
2407 2 18.1747 39.1106 10.7465 
215 2 16.834 40.4107 12.622 
224 2 13.4004 37.3584 12.8827 
234 2 13.7767 37.3929 8.30758 
246 2 13.4008 40.4107 12.622 
249 1 15.1173 37.3456 11.6571 
2193 1 18.1751 37.4058 9.53314 
359 2 16.4582 37.3929 8.30765 
767 1 13.5886 40.4199 10.5951 
827 1 15.1173 38.911 8.43779 
992 2 15.1172 39.0823 10.4603 
1425 1 16.6459 40.4199 10.5951 
1142 2 13.7763 40.4292 8.56806 
1342 1 15.1173 41.9552 8.43799 
1287 2 15.1172 41.7291 10.4437 
1248 2 16.4578 40.4292 8.56835 
2213 1 1.35909 3.83667 19.2239 
2179 2 2.88774 2.49907 19.0892 
2162 2 1.54682 3.84588 17.1969 
2148 2 4.22834 3.84588 17.1972 
2145 2 2.88774 5.1459 19.0724 
2105 1 4.41641 3.83666 19.2239 
2098 2 5.94524 2.52744 19.3754 
2081 2 5.94523 5.17427 19.3587 
2015 1 5.94562 0.822615 18.162 
524 1 2.88782 2.32785 17.0667 
1805 1 4.4165 0.819036 14.9095 
1801 1 1.35919 0.819029 14.9095 
1782 1 5.94527 3.83309 15.9715 
1752 2 1.54726 0.809822 16.9364 
1749 2 4.22877 0.809824 16.9365 
1745 2 2.88801 2.15663 15.0443 
1718 2 5.94516 2.12826 14.758 
1682 1 2.88839 3.89333 13.8476 
1999 1 7.47373 3.83667 19.2239 
1986 2 9.00238 2.49907 19.0892 
1971 2 7.66146 3.84588 17.1969 
1963 2 10.343 3.84588 17.1972 
1948 2 9.00238 5.1459 19.0724 
1933 1 10.5311 3.83666 19.2239 
1915 2 12.0599 2.52744 19.3754 
1897 2 12.0599 5.17427 19.3587 
1861 1 12.0603 0.822614 18.162 
1790 1 9.00246 2.32785 17.0667 
1582 1 10.5311 0.819036 14.9095 
1577 1 7.47383 0.819028 14.9095 
1565 1 12.0599 3.83309 15.9715 
1544 2 7.6619 0.809822 16.9364 
1529 2 10.3434 0.809824 16.9365 
1515 2 9.00265 2.15663 15.0443 
1482 2 12.0598 2.12826 14.758 
1445 1 9.00304 3.89333 13.8476 
1853 1 13.5884 3.83667 19.2239 
1830 2 15.117 2.49907 19.0892 
1824 2 13.7761 3.84588 17.1969 
1813 2 16.4576 3.84588 17.1972 
1800 2 15.117 5.1459 19.0724 
1776 1 16.6457 3.83666 19.2239 
1756 2 18.1745 2.52744 19.3754 
1729 2 18.1745 5.17427 19.3587 
1696 1 15.1171 2.32785 17.0667 
1677 1 18.1749 0.822614 18.162 
1329 1 16.6458 0.819036 14.9095 
1307 1 13.5885 0.819029 14.9095 
1296 1 18.1746 3.83309 15.9715 
1194 1 15.1177 3.89333 13.8476 
1273 2 13.7765 0.809822 16.9364 
1263 2 16.4581 0.809825 16.9365 
1220 2 18.1744 2.12826 14.758 
1242 2 15.1173 2.15663 15.0443 
2139 1 2.88782 5.37203 17.0667 
590 1 2.88839 9.98168 13.8476 
622 2 5.94516 8.21662 14.758 
658 2 2.88801 8.24499 15.0443 
665 2 4.22877 6.89818 16.9365 
681 2 1.54726 6.89818 16.9364 
698 1 5.94527 9.92144 15.9715 
717 1 1.35919 6.90738 14.9095 
734 1 4.4165 6.90739 14.9095 
1668 2 2.88802 5.59816 15.061 
1641 2 5.94516 5.56979 14.7748 
1051 1 5.94562 6.91097 18.162 
1141 2 5.94524 8.61579 19.3754 
1152 1 4.41641 9.92502 19.2239 
1201 2 4.22833 9.93423 17.1972 