LAMMPS data file via write_data, version 7 Aug 2019, timestep = 223

2800 atoms
2 atom types

-1.6911105626050912e-01 3.0404096194400772e+01 xlo xhi
-1.6838405671861034e-01 3.0273390582988132e+01 ylo yhi
-1.9091595270944378e-01 3.4324349451651493e+01 zlo zhi

Masses

1 55.847
2 15.9994

Atoms # charge

1 1 7.7973957764994051e-01 2.8882550181169342e+00 1.3082430931121782e+00 3.0292054668167361e+00 0 0 0
2 1 9.2647918323555034e-01 2.8879705774644502e+00 3.0200952274902097e+01 -1.4418367807648202e-01 0 -1 0
3 1 7.7959683205848651e-01 -1.6844951127140526e-01 1.2723256739336495e+00 9.1623718762840978e-01 0 0 0
4 1 9.3525657134064999e-01 1.3587822634545113e+00 4.3686876339958367e+00 1.9663716866547500e+00 0 0 0
1400 2 -6.5999661268860232e-01 3.0403731355367412e+01 -7.6794629540975601e-02 1.4774767965991073e+01 0 1 0
7 2 -6.6075383046190672e-01 -1.6904142230685359e-01 3.0690722690622931e+00 2.1116331518037326e+00 0 0 0
8 2 -6.5998516720098999e-01 1.1715903092447317e+00 4.3740836646864407e+00 3.9931230416938348e+00 0 0 0
9 2 -6.5210486495953068e-01 2.8880956589224085e+00 3.0311347149947840e+00 1.8163385479355472e+00 0 0 0
10 2 -6.7144437675012814e-01 -1.6904555724502124e-01 5.7185096279469789e+00 2.1078247334892000e+00 0 0 0
11 2 -6.5801672650081433e-01 1.5491357831894856e+00 4.2980078784396731e+00 -5.9103525933500219e-02 0 0 0
12 2 -6.5813678890265326e-01 4.2268562338479141e+00 4.2979678717047181e+00 -5.9129632628888602e-02 0 0 0
13 2 -6.7801395909450557e-01 2.8881004143592106e+00 5.6795916586314448e+00 1.8300615451970428e+00 0 0 0
14 1 9.2648025671113710e-01 2.8879708288417514e+00 5.8475353857249264e+00 -1.4418409627089951e-01 0 0 0
61 2 -6.6025340691208623e-01 1.1713702218069240e+00 1.3240274512943293e+00 4.2538226709370948e+00 0 0 0
70 1 9.3521468485837311e-01 4.4174974040227060e+00 4.3686847029805556e+00 1.9662405726667436e+00 0 0 0
74 2 -6.6011450877249422e-01 4.6050208769174272e+00 4.3740822076384225e+00 3.9930429147338233e+00 0 0 0
143 2 -6.6023292131951239e-01 4.6043696057093628e+00 1.3240279626043232e+00 4.2535473260877161e+00 0 0 0
146 1 9.3383105426921653e-01 5.9454297601504074e+00 2.8498635873580782e+00 4.1243493237486710e+00 0 0 0
147 1 7.7974883803346628e-01 2.8885820836541156e+00 4.3887198507761838e+00 5.2186886250051430e+00 0 0 0
150 1 9.3374430103734374e-01 5.9454319570838825e+00 5.8941329235204885e+00 4.1220182511470460e+00 0 0 0
66 1 7.7973881914441001e-01 9.0028997663572596e+00 1.3082433736776040e+00 3.0292050977117562e+00 0 0 0
67 1 9.2648004610607926e-01 9.0026146342892019e+00 3.0200952667624417e+01 -1.4418441220329828e-01 0 -1 0
68 1 7.7959392523437276e-01 5.9461957151974580e+00 1.2723261897910509e+00 9.1624119486851052e-01 0 0 0
69 1 9.3525547358440386e-01 7.4734216072227744e+00 4.3686872374257639e+00 1.9663738250104565e+00 0 0 0
1399 2 -6.6922556550110579e-01 2.7346590911586141e+01 -4.8428072559107346e-02 1.5060986613106252e+01 0 1 0
73 2 -6.6075487858330095e-01 5.9455982799292482e+00 3.0690731855341777e+00 2.1116339319881945e+00 0 0 0
75 2 -6.5998434547360729e-01 7.2862295954205258e+00 4.3740838813266274e+00 3.9931232154024889e+00 0 0 0
76 2 -6.5210468717492831e-01 9.0027398098670766e+00 3.0311347570569880e+00 1.8163386881945518e+00 0 0 0
77 2 -6.7144413943414871e-01 5.9455938644811264e+00 5.7185097986294853e+00 2.1078254029548993e+00 0 0 0
78 2 -6.5801540315071949e-01 7.6637801273420791e+00 4.2980086521429079e+00 -5.9100714555196596e-02 0 0 0
79 2 -6.5813688185756059e-01 1.0341501033874737e+01 4.2979675889996338e+00 -5.9129703088686800e-02 0 0 0
80 2 -6.7801351272864729e-01 9.0027438614657029e+00 5.6795916414791083e+00 1.8300618102728539e+00 0 0 0
81 1 9.2647941182785709e-01 9.0026148015259331e+00 5.8475355196453762e+00 -1.4418492538470579e-01 0 0 0
144 2 -6.6025220693971576e-01 7.2860091919811900e+00 1.3240273521936561e+00 4.2538257671966653e+00 0 0 0
275 1 9.3521471788536192e-01 1.0532140948150666e+01 4.3686852730858838e+00 1.9662406405772865e+00 0 0 0
279 2 -6.6011425407437430e-01 1.0719665274646987e+01 4.3740818285745311e+00 3.9930424395274398e+00 0 0 0
348 2 -6.6023222297736717e-01 1.0719014466565968e+01 1.3240275848360765e+00 4.2535471062317667e+00 0 0 0
351 1 9.3383107668948540e-01 1.2060074015483524e+01 2.8498646755045396e+00 4.1243499459043340e+00 0 0 0
352 1 7.7974789861841920e-01 9.0032258544723174e+00 4.3887197570020504e+00 5.2186904890641710e+00 0 0 0
355 1 9.3374459535140875e-01 1.2060076676581506e+01 5.8941329282055541e+00 4.1220182501794609e+00 0 0 0
271 1 7.7973833862971120e-01 1.5117544229538817e+01 1.3082440527668693e+00 3.0292052007003503e+00 0 0 0
272 1 9.2647939858922645e-01 1.5117258804666818e+01 3.0200952436074036e+01 -1.4418519434106356e-01 0 -1 0
273 1 7.7959381528690663e-01 1.2060839527285729e+01 1.2723261477826113e+00 9.1624069288256371e-01 0 0 0
274 1 9.3525570776532940e-01 1.3588065542626962e+01 4.3686882167053849e+00 1.9663744399932852e+00 0 0 0
1398 1 9.3188006170465421e-01 3.0403814287139056e+01 3.0193761330185652e+01 1.2752318439314450e+01 0 0 0
278 2 -6.6075449073570158e-01 1.2060243042046363e+01 3.0690724987027860e+00 2.1116335552185510e+00 0 0 0
280 2 -6.5998450279462217e-01 1.3400874485613773e+01 4.3740832305539810e+00 3.9931229521058533e+00 0 0 0
281 2 -6.5210516130783824e-01 1.5117384272427786e+01 3.0311343079986943e+00 1.8163383911188555e+00 0 0 0
282 2 -6.7144347589071574e-01 1.2060238402314466e+01 5.7185093033621790e+00 2.1078249962890983e+00 0 0 0
283 2 -6.5801490718035305e-01 1.3778425101854994e+01 4.2980082233195027e+00 -5.9101036254211800e-02 0 0 0
284 2 -6.5813642626836022e-01 1.6456145264992475e+01 4.2979676183971662e+00 -5.9129938902913078e-02 0 0 0
285 2 -6.7801319086670719e-01 1.5117388945159560e+01 5.6795913743538087e+00 1.8300612571776873e+00 0 0 0
286 1 9.2648067457991867e-01 1.5117258449848551e+01 5.8475359018224173e+00 -1.4418421088683067e-01 0 0 0
349 2 -6.6025200676501739e-01 1.3400654285180192e+01 1.3240266150271762e+00 4.2538252600558524e+00 0 0 0
555 1 9.3521457036817035e-01 1.6646785147197456e+01 4.3686853562322376e+00 1.9662411486110838e+00 0 0 0
559 2 -6.6011483796302872e-01 1.6834310381019918e+01 4.3740816078829683e+00 3.9930421758938150e+00 0 0 0
628 2 -6.6023207886465141e-01 1.6833658498719000e+01 1.3240272576823240e+00 4.2535472820009907e+00 0 0 0
631 1 9.3383080493906168e-01 1.8174718491010562e+01 2.8498645416150024e+00 4.1243496228722663e+00 0 0 0
632 1 7.7974748593419807e-01 1.5117869508881144e+01 4.3887203773693155e+00 5.2186904937020531e+00 0 0 0
635 1 9.3374432068910596e-01 1.8174720368461767e+01 5.8941328059805409e+00 4.1220187491265987e+00 0 0 0
551 1 7.7973820975892616e-01 2.1232188855436405e+01 1.3082431849875913e+00 3.0292051570921084e+00 0 0 0
552 1 9.2647966591627828e-01 2.1231903299175901e+01 3.0200952765798025e+01 -1.4418422252266930e-01 0 -1 0
553 1 7.7959397520209139e-01 1.8175484680347338e+01 1.2723260585419875e+00 9.1624076185025016e-01 0 0 0
554 1 9.3525577862834786e-01 1.9702709983056351e+01 4.3686875692162506e+00 1.9663740066563526e+00 0 0 0
1397 1 7.7981213558973617e-01 2.7346970288625105e+01 2.8688519975033007e+01 1.3847560321386471e+01 0 0 0
558 2 -6.6075483963433290e-01 1.8174887289877113e+01 3.0690728851687195e+00 2.1116336654048684e+00 0 0 0
560 2 -6.5998448811386434e-01 1.9515519171517198e+01 4.3740834982672601e+00 3.9931229492798295e+00 0 0 0
561 2 -6.5210494606291580e-01 2.1232028723653436e+01 3.0311349102459935e+00 1.8163387567485900e+00 0 0 0
562 2 -6.7144336136975014e-01 1.8174883127509410e+01 5.7185095696906352e+00 2.1078248871690337e+00 0 0 0
563 2 -6.5801508876566794e-01 1.9893069100380501e+01 4.2980084705218315e+00 -5.9100733256347571e-02 0 0 0
564 2 -6.5813688011813698e-01 2.2570789593235116e+01 4.2979675167416342e+00 -5.9129381002282856e-02 0 0 0
565 2 -6.7801290687444715e-01 2.1232033048135154e+01 5.6795915106252828e+00 1.8300619032675858e+00 0 0 0
566 1 9.2648008720644781e-01 2.1231903680100213e+01 5.8475355859840201e+00 -1.4418506120973038e-01 0 0 0
629 2 -6.6025222043902210e-01 1.9515298209216372e+01 1.3240271659427183e+00 4.2538256781222969e+00 0 0 0
835 1 9.3521495498603813e-01 2.2761429621977161e+01 4.3686852036327268e+00 1.9662401566256615e+00 0 0 0
839 2 -6.6011386997978927e-01 2.2948954471786230e+01 4.3740818391011240e+00 3.9930424435686920e+00 0 0 0
908 2 -6.6023241821343337e-01 2.2948303023006602e+01 1.3240280907876614e+00 4.2535471853040239e+00 0 0 0
911 1 9.3383146645091120e-01 2.4289363120180973e+01 2.8498639565026296e+00 4.1243496554087979e+00 0 0 0
912 1 7.7974785841702132e-01 2.1232514043888294e+01 4.3887202143606778e+00 5.2186908470310076e+00 0 0 0
915 1 9.3374493642805045e-01 2.4289365579256465e+01 5.8941331901039868e+00 4.1220182310578508e+00 0 0 0
831 1 7.7973982417927001e-01 2.7346832101119258e+01 1.3082431472403135e+00 3.0292065136332749e+00 0 0 0
832 1 9.2648017568422325e-01 2.7346547680384386e+01 3.0200952592022801e+01 -1.4418522965199237e-01 0 -1 0
833 1 7.7959450573922129e-01 2.4290128816805364e+01 1.2723260318789773e+00 9.1624075854281362e-01 0 0 0
834 1 9.3525612930341839e-01 2.5817353512756210e+01 4.3686882462258430e+00 1.9663737243150028e+00 0 0 0
1396 1 9.3570803564645055e-01 3.0403813032739741e+01 2.7149583027611317e+01 1.2752301985995883e+01 0 0 0
838 2 -6.6075430037739391e-01 2.4289531724272475e+01 3.0690728679580626e+00 2.1116339267247262e+00 0 0 0
840 2 -6.5998397516256835e-01 2.5630163246348673e+01 4.3740833461172732e+00 3.9931232266275716e+00 0 0 0
841 2 -6.5210454279984853e-01 2.7346671592913498e+01 3.0311344960109636e+00 1.8163384377751315e+00 0 0 0
842 2 -6.7144371848643947e-01 2.4289527055107971e+01 5.7185092446921484e+00 2.1078254145742874e+00 0 0 0
843 2 -6.5801513971100623e-01 2.6007713900569609e+01 4.2980082653708793e+00 -5.9100641573196770e-02 0 0 0
844 2 -6.5813700034799694e-01 2.8685432883332133e+01 4.2979673138615624e+00 -5.9131070363461373e-02 0 0 0
845 2 -6.7801462624390574e-01 2.7346676008786030e+01 5.6795909406174232e+00 1.8300613427425496e+00 0 0 0
846 1 9.2647953793194138e-01 2.7346547237075697e+01 5.8475361880599346e+00 -1.4418465273573214e-01 0 0 0
909 2 -6.6025198017625519e-01 2.5629943030194426e+01 1.3240274874739379e+00 4.2538250418843839e+00 0 0 0
1111 1 9.3521566221017460e-01 2.8876068671212369e+01 4.3686855771807442e+00 1.9662409370118354e+00 0 0 0
1112 2 -6.6011446482760527e-01 2.9063594726860803e+01 4.3740816681477659e+00 3.9930444747119731e+00 0 0 0
1128 2 -6.6023244650472046e-01 2.9062943672751349e+01 1.3240281539614893e+00 4.2535478725945337e+00 0 0 0
1130 1 9.3383286855620939e-01 3.0404003053914476e+01 2.8498637873657340e+00 4.1243497862555696e+00 0 0 0
1131 1 7.7974877401796205e-01 2.7347159143967414e+01 4.3887200569191211e+00 5.2186906749030504e+00 0 0 0
1134 1 9.3374543824057077e-01 3.0404004979565965e+01 5.8941333391327886e+00 4.1220177018228439e+00 0 0 0
6 1 7.7974035600253766e-01 2.8882545901197818e+00 7.3965970761210977e+00 3.0292038598244440e+00 0 0 0
15 1 7.7959637129591697e-01 -1.6845002960782199e-01 7.3606799038936552e+00 9.1623941985997648e-01 0 0 0
16 1 9.3525605251161281e-01 1.3587820125657262e+00 1.0457040997673394e+01 1.9663717516925421e+00 0 0 0
1395 2 -6.6922573001437013e-01 3.0403731684350134e+01 2.6923455175588646e+01 1.4758041855982691e+01 0 0 0
19 2 -6.6075539594975730e-01 -1.6904109618086247e-01 9.1574262501890153e+00 2.1116328710580055e+00 0 0 0
20 2 -6.5998558657127349e-01 1.1715903376468606e+00 1.0462437468251327e+01 3.9931228546078739e+00 0 0 0
21 2 -6.5210565446118041e-01 2.8880961317922460e+00 9.1194881747998249e+00 1.8163383367623214e+00 0 0 0
22 2 -6.7144348379961605e-01 -1.6904565041831507e-01 1.1806863806002786e+01 2.1078248051830126e+00 0 0 0
23 2 -6.5801749379556751e-01 1.5491361573580666e+00 1.0386361246145189e+01 -5.9103635671138299e-02 0 0 0
24 2 -6.5813647485115445e-01 4.2268565048644060e+00 1.0386321013136280e+01 -5.9129830233004721e-02 0 0 0
25 2 -6.7801390471218814e-01 2.8881003759785382e+00 1.1767945215861191e+01 1.8300613991513572e+00 0 0 0
26 1 9.2648011653549101e-01 2.8879705215445490e+00 1.1935889652859723e+01 -1.4418404031551757e-01 0 0 0
62 2 -6.6025331821570177e-01 1.1713709549725853e+00 7.4123821637107428e+00 4.2538230162393376e+00 0 0 0
84 1 9.3521518440059470e-01 4.4174971781004579e+00 1.0457039015630098e+01 1.9662412038368331e+00 0 0 0
88 2 -6.6011454400509528e-01 4.6050205956951320e+00 1.0462435449812434e+01 3.9930424058871026e+00 0 0 0
157 2 -6.6023218970590192e-01 4.6043692172656510e+00 7.4123827254353847e+00 4.2535468316900529e+00 0 0 0
160 1 9.3383131409324649e-01 5.9454298075836434e+00 8.9382201831615102e+00 4.1243504071908550e+00 0 0 0
161 1 7.7974886768491658e-01 2.8885823282649223e+00 1.0477073553035055e+01 5.2186886573681255e+00 0 0 0
164 1 9.3374439302264445e-01 5.9454323102533122e+00 1.1982486870434011e+01 4.1220183337540872e+00 0 0 0
72 1 7.7973945591249261e-01 9.0029004659497573e+00 7.3965972242124041e+00 3.0292035633885974e+00 0 0 0
82 1 7.7959492336132741e-01 5.9461957924192150e+00 7.3606796323387700e+00 9.1624270118887496e-01 0 0 0
83 1 9.3525619205892241e-01 7.4734221290311904e+00 1.0457041834478671e+01 1.9663745512423472e+00 0 0 0
1394 2 -6.6001877997546876e-01 2.9062813591364016e+01 2.5623428917532092e+01 1.2882458327373342e+01 0 0 0
87 2 -6.6075416670831433e-01 5.9455981986679021e+00 9.1574263839854897e+00 2.1116331399547050e+00 0 0 0
89 2 -6.5998459829655898e-01 7.2862297487821515e+00 1.0462436914465119e+01 3.9931228809450943e+00 0 0 0
90 2 -6.5210491857800357e-01 9.0027392948682596e+00 9.1194880543614740e+00 1.8163385614932521e+00 0 0 0
91 2 -6.7144328733567360e-01 5.9455936358203720e+00 1.1806862970736372e+01 2.1078247810385284e+00 0 0 0
92 2 -6.5801452238317182e-01 7.6637797416587805e+00 1.0386361765720061e+01 -5.9101114761540077e-02 0 0 0
93 2 -6.5813727421070811e-01 1.0341500454536185e+01 1.0386320965165030e+01 -5.9129859289525771e-02 0 0 0
94 2 -6.7801367097494281e-01 9.0027438209878117e+00 1.1767944975658203e+01 1.8300613557266643e+00 0 0 0
95 1 9.2648007480064798e-01 9.0026151511798975e+00 1.1935889530756000e+01 -1.4418429441039329e-01 0 0 0
158 2 -6.6025222296920472e-01 7.2860095587501332e+00 7.4123821544151101e+00 4.2538252139914885e+00 0 0 0
289 1 9.3521433843287471e-01 1.0532141052613360e+01 1.0457039132477020e+01 1.9662406499379530e+00 0 0 0
293 2 -6.6011474243952384e-01 1.0719665617978361e+01 1.0462435341699329e+01 3.9930425982995486e+00 0 0 0
362 2 -6.6023213588388607e-01 1.0719013369615093e+01 7.4123830321005828e+00 4.2535472061332209e+00 0 0 0
365 1 9.3383153347003645e-01 1.2060073987875013e+01 8.9382195816682657e+00 4.1243494594190357e+00 0 0 0
366 1 7.7974776195396267e-01 9.0032253238320408e+00 1.0477073790809085e+01 5.2186899900449673e+00 0 0 0
369 1 9.3374374304982466e-01 1.2060075786019395e+01 1.1982487070024064e+01 4.1220178649497212e+00 0 0 0
277 1 7.7974011303583457e-01 1.5117543805670744e+01 7.3965966292992205e+00 3.0292038458673254e+00 0 0 0
287 1 7.7959544905344569e-01 1.2060839959427236e+01 7.3606799135205589e+00 9.1624268222852534e-01 0 0 0
288 1 9.3525557355986089e-01 1.3588064953999780e+01 1.0457041445084014e+01 1.9663736987439184e+00 0 0 0
1393 2 -6.5999940222646636e-01 2.7346586624090474e+01 2.6951821333698916e+01 1.5044261355216980e+01 0 0 0
292 2 -6.6075453826791808e-01 1.2060242990753339e+01 9.1574266256242574e+00 2.1116335096081285e+00 0 0 0
294 2 -6.5998448593879544e-01 1.3400875109157905e+01 1.0462437266557357e+01 3.9931234541089649e+00 0 0 0
295 2 -6.5210434745546042e-01 1.5117384758981183e+01 9.1194885648662201e+00 1.8163387050518176e+00 0 0 0
296 2 -6.7144458962912867e-01 1.2060238766958536e+01 1.1806863056518653e+01 2.1078252975467309e+00 0 0 0
297 2 -6.5801570548744637e-01 1.3778425227376955e+01 1.0386361708268335e+01 -5.9100769793328393e-02 0 0 0
298 2 -6.5813687669471344e-01 1.6456145628333481e+01 1.0386320816344218e+01 -5.9129482836215767e-02 0 0 0
299 2 -6.7801384600100711e-01 1.5117389073920640e+01 1.1767944888071247e+01 1.8300619592614744e+00 0 0 0
300 1 9.2647924776251522e-01 1.5117258292644472e+01 1.1935889672318542e+01 -1.4418489801415982e-01 0 0 0
363 2 -6.6025184489250943e-01 1.3400654559712226e+01 7.4123828043339470e+00 4.2538254638727580e+00 0 0 0
569 1 9.3521496639380630e-01 1.6646785146681385e+01 1.0457039131851950e+01 1.9662405203014295e+00 0 0 0
573 2 -6.6011437091412228e-01 1.6834310049660818e+01 1.0462435573675805e+01 3.9930423830164679e+00 0 0 0
642 2 -6.6023217464052397e-01 1.6833658412894245e+01 7.4123835147153256e+00 4.2535468958908176e+00 0 0 0
645 1 9.3383166863451095e-01 1.8174718609012604e+01 8.9382193517639390e+00 4.1243501450966384e+00 0 0 0
646 1 7.7974782778453589e-01 1.5117869317534879e+01 1.0477073355417057e+01 5.2186901837328783e+00 0 0 0
649 1 9.3374444048490535e-01 1.8174721348654771e+01 1.1982487420166397e+01 4.1220179668421784e+00 0 0 0
557 1 7.7974029095918229e-01 2.1232188866573360e+01 7.3965970133223591e+00 3.0292037483043504e+00 0 0 0
567 1 7.7959593556723250e-01 1.8175484408764866e+01 7.3606794615514239e+00 9.1624236140193982e-01 0 0 0
568 1 9.3525612694078375e-01 1.9702710176744056e+01 1.0457042110553692e+01 1.9663741488279378e+00 0 0 0
1391 2 -6.5995785645983862e-01 2.8687351081475697e+01 2.5605015236106233e+01 1.6936457560311016e+01 0 0 0
572 2 -6.6075391106074854e-01 1.8174887339344181e+01 9.1574267961729880e+00 2.1116333772317786e+00 0 0 0
574 2 -6.5998442614224506e-01 1.9515518712428790e+01 1.0462436953681923e+01 3.9931229780980551e+00 0 0 0
575 2 -6.5210426750431261e-01 2.1232028549360763e+01 9.1194882775141259e+00 1.8163387544867624e+00 0 0 0
576 2 -6.7144407499153846e-01 1.8174882648641532e+01 1.1806862363177920e+01 2.1078253409221865e+00 0 0 0
577 2 -6.5801495201279203e-01 1.9893069131549140e+01 1.0386361553773023e+01 -5.9100638780687456e-02 0 0 0
578 2 -6.5813656357379624e-01 2.2570790044743180e+01 1.0386320915150593e+01 -5.9129742301576867e-02 0 0 0
579 2 -6.7801366987680245e-01 2.1232033162310547e+01 1.1767944346742880e+01 1.8300615791714105e+00 0 0 0
580 1 9.2648006317213438e-01 2.1231903210948996e+01 1.1935890120730109e+01 -1.4418446880659208e-01 0 0 0
643 2 -6.6025171380545078e-01 1.9515299024508852e+01 7.4123826842860803e+00 4.2538249763334521e+00 0 0 0
849 1 9.3521487331754261e-01 2.2761429597762234e+01 1.0457039237050932e+01 1.9662407189660542e+00 0 0 0
853 2 -6.6011435317634037e-01 2.2948954625370597e+01 1.0462435398458357e+01 3.9930425954927427e+00 0 0 0
922 2 -6.6023167491309365e-01 2.2948302441343429e+01 7.4123830861281332e+00 4.2535469396868972e+00 0 0 0
925 1 9.3383172095344569e-01 2.4289363230180726e+01 8.9382194041514502e+00 4.1243495663732066e+00 0 0 0
926 1 7.7974799308242726e-01 2.1232514133603487e+01 1.0477073584734754e+01 5.2186903850073696e+00 0 0 0
929 1 9.3374446495574270e-01 2.4289364888562421e+01 1.1982487360320311e+01 4.1220176880278654e+00 0 0 0
837 1 7.7973920183994128e-01 2.7346832234190558e+01 7.3965970365071234e+00 3.0292043348486275e+00 0 0 0
847 1 7.7959531550933636e-01 2.4290129101439540e+01 7.3606794641382285e+00 9.1624242421090885e-01 0 0 0
848 1 9.3525611381027485e-01 2.5817353640570694e+01 1.0457041155545696e+01 1.9663740714650901e+00 0 0 0
1390 2 -6.6010824924042266e-01 2.6005834597319517e+01 2.5605012915545014e+01 1.6936387246705003e+01 0 0 0
852 2 -6.6075457468186072e-01 2.4289531483995180e+01 9.1574269620220257e+00 2.1116334536475274e+00 0 0 0
854 2 -6.5998409898737120e-01 2.5630163308916885e+01 1.0462437434741219e+01 3.9931234435339049e+00 0 0 0
855 2 -6.5210593187236743e-01 2.7346671321057812e+01 9.1194887251383641e+00 1.8163382347652905e+00 0 0 0
856 2 -6.7144404327474683e-01 2.4289527491057616e+01 1.1806862673777893e+01 2.1078252177749759e+00 0 0 0
857 2 -6.5801464501373064e-01 2.6007713536219615e+01 1.0386361985955622e+01 -5.9101153706621848e-02 0 0 0
858 2 -6.5813684070644973e-01 2.8685432595431237e+01 1.0386320970207642e+01 -5.9131471990168653e-02 0 0 0
859 2 -6.7801344276949804e-01 2.7346675845155328e+01 1.1767945076317078e+01 1.8300614310210697e+00 0 0 0
860 1 9.2648058817455792e-01 2.7346547821114640e+01 1.1935890301685422e+01 -1.4418483296962648e-01 0 0 0
923 2 -6.6025211132237083e-01 2.5629943157265721e+01 7.4123825459001145e+00 4.2538254999448224e+00 0 0 0
1113 1 9.3521562703538919e-01 2.8876068814313157e+01 1.0457038233164694e+01 1.9662409048429852e+00 0 0 0
1114 2 -6.6011462951722766e-01 2.9063594436580342e+01 1.0462435804339654e+01 3.9930446904781891e+00 0 0 0
1141 2 -6.6023326733891274e-01 2.9062943528996417e+01 7.4123829964880015e+00 4.2535486314093411e+00 0 0 0
1143 1 9.3383219822479324e-01 3.0404002819434325e+01 8.9382195351659455e+00 4.1243494304022112e+00 0 0 0
1144 1 7.7974920798424874e-01 2.7347159527719892e+01 1.0477073203732571e+01 5.2186902077908783e+00 0 0 0
1147 1 9.3374602476230639e-01 3.0404005226154947e+01 1.1982486876830430e+01 4.1220180119714760e+00 0 0 0
18 1 7.7974062965446855e-01 2.8882550906913429e+00 1.3484950544349635e+01 3.0292040257295731e+00 0 0 0
27 1 7.7959755036877532e-01 -1.6844996947268220e-01 1.3449033504485024e+01 9.1623866155684508e-01 0 0 0
28 1 9.3525616039058923e-01 1.3587822734631141e+00 1.6545395352868876e+01 1.9663716126013158e+00 0 0 0
1388 1 7.7980799151610891e-01 3.0403850718383229e+01 2.8628278472624125e+01 1.5971466447849055e+01 0 0 0
31 2 -6.6075416148335808e-01 -1.6904116626354504e-01 1.5245779344727993e+01 2.1116329802607479e+00 0 0 0
32 2 -6.5998602866100697e-01 1.1715905776126854e+00 1.6550790511443644e+01 3.9931227876754276e+00 0 0 0
33 2 -6.5210539387731081e-01 2.8880958303208386e+00 1.5207841470824661e+01 1.8163385940281356e+00 0 0 0
34 2 -6.7144397027957070e-01 -1.6904566874593657e-01 1.7895217290288532e+01 2.1078244602246503e+00 0 0 0
35 2 -6.5801772028959205e-01 1.5491361391042722e+00 1.6474714821347860e+01 -5.9103310003319941e-02 0 0 0
36 2 -6.5813722242621442e-01 4.2268564047905288e+00 1.6474674397791279e+01 -5.9129813307330123e-02 0 0 0
37 2 -6.7801446921779895e-01 2.8881002314857667e+00 1.7856298728844404e+01 1.8300614463722169e+00 0 0 0
38 1 9.2647977029420947e-01 2.8879709769419102e+00 1.8024242619754368e+01 -1.4418368258180403e-01 0 0 0
63 2 -6.6025316595006078e-01 1.1713708822604025e+00 1.3500735916754129e+01 4.2538227185458783e+00 0 0 0
98 1 9.3521464509367480e-01 4.4174972439341049e+00 1.6545392952731163e+01 1.9662407201925378e+00 0 0 0
102 2 -6.6011475362517713e-01 4.6050207540099599e+00 1.6550788944918267e+01 3.9930429389471769e+00 0 0 0
171 2 -6.6023232589794467e-01 4.6043687263704269e+00 1.3500736804825765e+01 4.2535469805348054e+00 0 0 0
174 1 9.3383133751057612e-01 5.9454298976733302e+00 1.5026573294645297e+01 4.1243495401173700e+00 0 0 0
175 1 7.7974826237055217e-01 2.8885818963102099e+00 1.6565427639007005e+01 5.2186881451857765e+00 0 0 0
178 1 9.3374424698105585e-01 5.9454317029405654e+00 1.8070840427100507e+01 4.1220178153568110e+00 0 0 0
86 1 7.7973911249804972e-01 9.0029000793896792e+00 1.3484950321383382e+01 3.0292038128897709e+00 0 0 0
96 1 7.7959574341962556e-01 5.9461958912246953e+00 1.3449033523808255e+01 9.1624314490084524e-01 0 0 0
97 1 9.3525568200935161e-01 7.4734214946084654e+00 1.6545395099335906e+01 1.9663741160720782e+00 0 0 0
1386 1 9.3567662769961213e-01 2.5817759642794584e+01 2.5614219028333036e+01 1.4909491396900542e+01 0 0 0
101 2 -6.6075441298083715e-01 5.9455982255642441e+00 1.5245780077127652e+01 2.1116333342412892e+00 0 0 0
103 2 -6.5998445843606257e-01 7.2862300313782793e+00 1.6550790882463811e+01 3.9931233583623253e+00 0 0 0
104 2 -6.5210525303148292e-01 9.0027397020680713e+00 1.5207842255866652e+01 1.8163383748489017e+00 0 0 0
105 2 -6.7144406097407805e-01 5.9455940436803951e+00 1.7895216741930433e+01 2.1078252549508778e+00 0 0 0
106 2 -6.5801506278452060e-01 7.6637804137732299e+00 1.6474715296067036e+01 -5.9101055450702690e-02 0 0 0
107 2 -6.5813690999119867e-01 1.0341500925494961e+01 1.6474674735328630e+01 -5.9129830762608276e-02 0 0 0
108 2 -6.7801377442817023e-01 9.0027443597103183e+00 1.7856298781057021e+01 1.8300616625723136e+00 0 0 0
109 1 9.2647967391066421e-01 9.0026142420375024e+00 1.8024243168933825e+01 -1.4418453103044176e-01 0 0 0
172 2 -6.6025227355421390e-01 7.2860095496277832e+00 1.3500736350373847e+01 4.2538254883375481e+00 0 0 0
303 1 9.3521433726574832e-01 1.0532140678412029e+01 1.6545392182942621e+01 1.9662407060507594e+00 0 0 0
307 2 -6.6011488514944994e-01 1.0719665541179003e+01 1.6550789433514023e+01 3.9930424249475593e+00 0 0 0
376 2 -6.6023308135509517e-01 1.0719013816595599e+01 1.3500736883374527e+01 4.2535472426536440e+00 0 0 0
379 1 9.3383079800420710e-01 1.2060073801986322e+01 1.5026572931722008e+01 4.1243498057160206e+00 0 0 0
380 1 7.7974788582801091e-01 9.0032254140455699e+00 1.6565426862622651e+01 5.2186899549778838e+00 0 0 0
383 1 9.3374421874304392e-01 1.2060076300442796e+01 1.8070840549280348e+01 4.1220181374766209e+00 0 0 0
291 1 7.7973909266688657e-01 1.5117543921760975e+01 1.3484950640831510e+01 3.0292032318810853e+00 0 0 0
301 1 7.7959440980990113e-01 1.2060839951139492e+01 1.3449032851597192e+01 9.1624252643577520e-01 0 0 0
302 1 9.3525576615648232e-01 1.3588065384221666e+01 1.6545394770208301e+01 1.9663740996560111e+00 0 0 0
1385 1 9.3569632470934327e-01 2.8875076851565659e+01 2.5614225886708013e+01 1.4909527891865810e+01 0 0 0
306 2 -6.6075508896850610e-01 1.2060243038579465e+01 1.5245780739425209e+01 2.1116334093457998e+00 0 0 0
308 2 -6.5998450422488741e-01 1.3400874911653032e+01 1.6550790976663126e+01 3.9931232517973121e+00 0 0 0
309 2 -6.5210525672152619e-01 1.5117384324811914e+01 1.5207842256389629e+01 1.8163387495637664e+00 0 0 0
310 2 -6.7144378781112102e-01 1.2060238556214422e+01 1.7895216663550002e+01 2.1078251394265246e+00 0 0 0
311 2 -6.5801493340806438e-01 1.3778424943872613e+01 1.6474715729161105e+01 -5.9100936415089941e-02 0 0 0
312 2 -6.5813655759847289e-01 1.6456145432520664e+01 1.6474674997329398e+01 -5.9129937508101721e-02 0 0 0
313 2 -6.7801316886719609e-01 1.5117388863837141e+01 1.7856298647845264e+01 1.8300615678481267e+00 0 0 0
314 1 9.2648037059921706e-01 1.5117258521814190e+01 1.8024243119995965e+01 -1.4418450714796349e-01 0 0 0
377 2 -6.6025248128359182e-01 1.3400654916322038e+01 1.3500736172583357e+01 4.2538254695907440e+00 0 0 0
583 1 9.3521471174407111e-01 1.6646785537996543e+01 1.6545392025033127e+01 1.9662406507878014e+00 0 0 0
587 2 -6.6011414378109379e-01 1.6834310060694705e+01 1.6550789465518164e+01 3.9930428112006950e+00 0 0 0
656 2 -6.6023212908678008e-01 1.6833658039947910e+01 1.3500736623126903e+01 4.2535474526842822e+00 0 0 0
659 1 9.3383159587119113e-01 1.8174719149272551e+01 1.5026572822606807e+01 4.1243491713052078e+00 0 0 0
660 1 7.7974831533433508e-01 1.5117869156954360e+01 1.6565426811243487e+01 5.2186901095115417e+00 0 0 0
663 1 9.3374472625566729e-01 1.8174720812623061e+01 1.8070840393133928e+01 4.1220174977866275e+00 0 0 0
571 1 7.7973916699964607e-01 2.1232188713911363e+01 1.3484950955414568e+01 3.0292031726743693e+00 0 0 0
581 1 7.7959485534102468e-01 1.8175484840137710e+01 1.3449033413846609e+01 9.1624239290299903e-01 0 0 0
582 1 9.3525564553322582e-01 1.9702710273572091e+01 1.6545394162192906e+01 1.9663740698364478e+00 0 0 0
1335 2 -6.6010363957613516e-01 2.9063248624233267e+01 2.8675738687628030e+01 1.2621981888265891e+01 0 0 0
586 2 -6.6075498721536230e-01 1.8174886906190832e+01 1.5245780771606611e+01 2.1116335551120207e+00 0 0 0
588 2 -6.5998434282934249e-01 1.9515518655995539e+01 1.6550791484229695e+01 3.9931236660686569e+00 0 0 0
589 2 -6.5210540422968966e-01 2.1232028692282739e+01 1.5207842347279669e+01 1.8163386356817270e+00 0 0 0
590 2 -6.7144371969046823e-01 1.8174882796406280e+01 1.7895216886267328e+01 2.1078253481797904e+00 0 0 0
591 2 -6.5801487973981576e-01 1.9893068844240197e+01 1.6474715914965483e+01 -5.9101302085619534e-02 0 0 0
592 2 -6.5813691238360339e-01 2.2570789803391651e+01 1.6474675007376042e+01 -5.9129954653937541e-02 0 0 0
593 2 -6.7801324073268032e-01 2.1232033045646006e+01 1.7856299255428510e+01 1.8300618734159853e+00 0 0 0
594 1 9.2647995337160471e-01 2.1231903578266330e+01 1.8024242936452556e+01 -1.4418451886727446e-01 0 0 0
657 2 -6.6025227027909272e-01 1.9515298426185041e+01 1.3500736033453421e+01 4.2538258651948340e+00 0 0 0
863 1 9.3521433925443898e-01 2.2761429559653557e+01 1.6545391775001384e+01 1.9662405863778563e+00 0 0 0
867 2 -6.6011481322297805e-01 2.2948954403188960e+01 1.6550789655991466e+01 3.9930429328976849e+00 0 0 0
936 2 -6.6023276852258461e-01 2.2948303036320102e+01 1.3500736479333593e+01 4.2535476385123818e+00 0 0 0
939 1 9.3383087343612803e-01 2.4289362888587341e+01 1.5026573264540422e+01 4.1243493588965769e+00 0 0 0
940 1 7.7974804506502648e-01 2.1232514443567567e+01 1.6565426339084137e+01 5.2186897391830209e+00 0 0 0
943 1 9.3374409812394132e-01 2.4289365719283357e+01 1.8070840087495164e+01 4.1220177500540878e+00 0 0 0
851 1 7.7974057901306537e-01 2.7346832156470580e+01 1.3484950873850689e+01 3.0292044021464011e+00 0 0 0
861 1 7.7959500557443895e-01 2.4290128519416562e+01 1.3449033683618662e+01 9.1624251145208424e-01 0 0 0
862 1 9.3525595333175571e-01 2.5817353528904995e+01 1.6545394958193683e+01 1.9663739532880202e+00 0 0 0
1319 2 -6.6003911337826759e-01 2.5629686043944968e+01 2.5623428466613511e+01 1.2882746853615076e+01 0 0 0
866 2 -6.6075515047224087e-01 2.4289531912419481e+01 1.5245780419056652e+01 2.1116334877049234e+00 0 0 0
868 2 -6.5998476480609858e-01 2.5630163069191035e+01 1.6550790920865644e+01 3.9931232306445845e+00 0 0 0
869 2 -6.5210484962884518e-01 2.7346671506679339e+01 1.5207841698742898e+01 1.8163385577372633e+00 0 0 0
870 2 -6.7144413816185167e-01 2.4289527164380146e+01 1.7895216967751953e+01 2.1078253281721975e+00 0 0 0
871 2 -6.5801543932550244e-01 2.6007713435449666e+01 1.6474715643588912e+01 -5.9100661806568339e-02 0 0 0
872 2 -6.5813714422440595e-01 2.8685432679520822e+01 1.6474674687863033e+01 -5.9130803497200922e-02 0 0 0
873 2 -6.7801397257188445e-01 2.7346675777705489e+01 1.7856298725000826e+01 1.8300612640176102e+00 0 0 0
874 1 9.2647984486866952e-01 2.7346547678297405e+01 1.8024242835609158e+01 -1.4418499899106690e-01 0 0 0