ITEM: TIMESTEP
0
ITEM: NUMBER OF ATOMS
2577
ITEM: BOX BOUNDS pp pp ss
0.0000000000000000e+00 1.8560400000000001e+01
0.0000000000000000e+00 4.2399999999999999e+01
2.2251622413331715e-01 4.2020155716664163e+01
ITEM: ATOMS id type x y z 
7 1 2.78574 0.882727 2.76059 
52 1 1.18266 4.06257 1.02123 
106 2 1.19396 4.17998 3.0027 
124 2 2.79182 2.68303 0.780511 
205 2 1.23537 1.10848 3.50832 
223 1 4.27121 4.20515 1.15428 
241 2 4.18476 4.21621 3.18995 
259 2 4.2971 0.942496 3.48286 
277 1 5.48295 2.68323 3.4487 
295 1 2.67813 4.34043 3.88322 
358 1 5.95046 1.45862 0.877818 
412 2 5.79122 2.81159 1.43924 
1275 2 5.80834 2.09263 5.10406 
178 2 2.74085 5.05985 0.564396 
331 1 9.50835 0.792091 2.72974 
376 1 7.12032 4.24248 1.49581 
430 2 6.80487 4.19673 3.35691 
448 2 9.19541 2.01237 1.58348 
502 2 8.68727 4.55228 0.997381 
529 2 7.67791 0.535964 3.69321 
547 1 10.0661 3.52132 1.58095 
565 2 10.7687 3.92873 2.97691 
583 2 10.7339 0.873317 3.66095 
601 1 12.0057 2.48308 3.4632 
619 1 8.45902 4.14841 4.85801 
682 1 12.0695 1.01921 0.666328 
736 2 11.9974 2.53556 1.22967 
925 1 18.429 2.63755 3.30048 
655 1 14.6246 1.1803 2.64965 
700 1 13.6225 3.90312 1.42731 
754 2 13.196 4.04176 3.19587 
772 2 14.9223 2.63512 1.37142 
826 2 15.1717 5.08001 1.1187 
853 2 13.4313 1.11308 3.64111 
871 1 16.7012 3.89766 1.33881 
889 2 17.2432 4.08963 2.96144 
907 2 16.7324 1.23295 3.62393 
943 1 14.9287 4.13568 4.93825 
1006 1 18.1717 1.10564 0.7679 
1060 2 18.2316 2.65663 1.12336 
97 2 18.3401 0.115703 5.27072 
28 2 18.3638 2.64425 5.36367 
466 2 5.74112 5.57106 1.35818 
313 1 5.64135 5.66154 3.50752 
2014 2 5.7856 8.67296 1.37236 
1960 1 5.82428 7.01198 0.859187 
1906 1 2.83825 10.1768 5.04474 
1888 1 5.78874 8.64152 3.46376 
1870 2 4.49508 7.2115 3.71066 
1852 2 4.5545 10.1922 3.27235 
1834 1 4.24272 10.1781 1.3289 
1816 2 0.974855 7.19729 3.43473 
1735 2 2.66989 8.81413 1.19098 
1717 2 0.775339 10.359 2.86347 
1663 1 1.07019 10.1659 1.16347 
1627 1 2.59024 7.49653 2.26623 
2329 2 12.0433 8.89364 0.311426 
2221 1 8.49953 10.3438 4.5579 
2185 2 10.5174 7.06982 3.43802 
2167 2 10.8665 9.91788 2.70682 
2149 1 10.4815 9.95903 1.06863 
2131 2 7.21527 7.14681 3.68722 
2075 2 11.9546 8.5564 5.28114 
2050 2 8.82239 8.84623 1.07844 
2032 2 7.09443 10.1879 3.32976 
1978 1 7.26578 10.1966 1.36051 
557 2 11.8499 5.85311 5.3269 
1942 1 8.95889 7.1644 2.61536 
637 1 11.8721 5.57488 3.2024 
790 2 12.2399 5.75807 1.30448 
2275 1 12.1619 7.34143 0.623783 
2203 1 12.0004 8.52919 3.31001 
1114 2 18.2151 5.61138 1.10778 
2569 1 18.0656 7.36978 0.657165 
13 2 18.2127 5.70425 5.31415 
2536 1 15.3298 10.1648 4.84006 
2530 2 18.0861 8.6918 1.2789 
2518 1 18.0944 8.64287 3.3056 
2500 2 16.6318 7.035 3.47481 
2482 2 16.9562 10.176 3.10797 
2464 1 16.6539 10.125 1.15508 
2446 2 13.406 7.08202 3.56432 
175 2 18.1055 8.25403 5.16053 
2365 2 15.1687 9.14196 0.595285 
2347 2 13.2515 9.87277 2.65316 
2293 1 13.5605 10.0212 1.01533 
2257 1 15.1103 6.9722 2.61555 
961 1 18.2276 5.66576 3.17286 
2068 2 5.72163 11.4709 1.30177 
2024 1 2.67604 13.2046 2.90497 
1924 1 5.6155 11.6587 3.43799 
1914 2 2.76958 15.1857 0.737664 
1849 2 1.16269 13.1693 3.55318 
1802 2 4.16059 13.2309 3.56416 
1789 2 2.72626 11.2403 0.830655 
1783 1 5.69229 14.6393 3.27887 
1729 1 5.65582 12.8928 0.745578 
1678 2 5.74482 14.5819 1.19107 
1902 2 5.83346 14.6521 5.41472 
1355 2 5.60588 12.1525 5.35515 
2383 2 12.0608 11.6894 1.04336 
2239 1 11.9848 11.5756 3.08877 
2104 2 8.8672 11.3435 0.89658 
1879 2 11.9495 11.4852 5.19864 
654 2 12.0002 14.0417 5.136 
1745 1 9.06297 12.9721 1.48625 
1651 2 8.95673 14.7954 0.860847 
1578 2 6.92562 13.213 3.61247 
1533 2 10.6823 12.9401 3.24574 
1517 1 12.0661 14.5603 3.36537 
1496 1 9.10198 15.6885 4.22633 
1430 1 12.1451 13.5013 0.528664 
1369 2 12.0427 15.051 0.404877 
1049 1 10.4198 12.932 5.43679 
2554 1 18.3516 11.6196 3.48676 
2483 2 18.1676 11.2534 0.445121 
2419 2 15.1425 11.5157 1.11209 
1455 1 15.0257 12.8438 2.31837 
1082 2 18.1957 14.4252 1.09213 
1128 1 18.1931 12.794 0.647564 
1330 2 15.0665 15.2894 0.611229 
1190 1 18.2784 14.5233 3.15586 
1208 2 16.9828 13.0771 3.56863 
1210 2 18.2059 14.6367 5.31252 
1263 2 13.4519 12.9335 3.37016 
1925 2 0.833609 16.0168 2.75223 
1829 1 4.279 16.2315 1.22903 
64 2 5.88438 20.4676 1.05072 
116 1 5.89468 18.816 0.590628 
231 2 4.5776 19.1661 3.52334 
293 2 1.04823 19.0313 3.31719 
1993 1 1.17734 16.128 1.07576 
520 1 2.61391 18.9748 2.26377 
1940 1 1.15263 19.0536 5.43067 
1878 2 2.73384 17.5952 1.0864 
1863 2 5.96013 17.917 5.40247 
1813 2 4.61494 16.1548 3.09564 
1770 1 2.94579 16.3086 4.82896 
1631 2 5.83571 17.4194 1.10976 
1566 2 5.87094 20.6515 5.26557 
203 1 5.89102 20.5982 3.08658 
1756 1 5.93689 17.6619 3.31317 
1713 1 7.31803 16.0813 1.20593 
1552 2 10.684 15.9287 3.08932 
103 2 7.34343 19.1995 3.46941 
141 1 8.93986 19.134 2.65537 
168 2 10.5103 19.1414 3.51232 
193 1 12.0196 20.6288 3.24715 
285 1 11.9498 18.892 0.719181 
373 2 12.0288 20.6252 1.19735 
1662 2 7.09647 16.1072 2.98007 
1601 2 8.92928 17.2913 0.983877 
1564 1 10.536 16.0911 1.14228 
1476 1 11.9127 17.5796 3.35127 
1318 2 11.9703 17.5398 1.33299 
22 2 11.9921 20.3601 5.42502 
513 2 11.9526 17.8734 5.38881 
1404 1 13.5101 16.2015 1.1881 
266 1 15.2011 18.964 2.25884 
411 2 18.1574 20.1391 5.07084 
511 2 13.2955 19.1002 3.57214 
579 2 16.754 19.0371 3.30792 
612 1 18.1673 20.5629 3.06469 
703 1 18.205 18.8064 0.49712 
780 2 18.2186 20.5819 1.01927 
1028 2 18.1974 17.3844 0.915608 
1342 2 13.1577 15.9128 3.02529 
1159 1 18.1946 17.572 3.17093 
1178 1 14.8093 16.0431 4.80729 
1285 2 15.074 17.6391 1.10994 
1228 2 16.9727 16.041 2.74771 
1240 2 18.1819 17.557 5.17993 
1245 1 16.6408 16.1255 1.08313 
246 1 16.633 19.0176 5.41213 
1513 1 4.30121 0.950482 5.60068 
1479 1 1.27688 1.13934 5.62212 
1445 1 5.6232 4.3071 7.1807 
1310 2 2.84648 2.15782 5.95427 
434 2 5.78813 3.06287 10.5442 
526 1 5.76385 0.819984 8.53335 
856 1 4.25806 4.18312 10.1869 
949 2 4.20861 4.16928 8.09234 
992 2 1.60353 4.1585 7.98885 
1064 2 2.71017 2.76678 9.92466 
1382 2 1.35583 1.12272 7.70903 
1140 1 2.82083 2.61619 7.87795 
1339 2 4.2162 0.979134 7.70882 
1165 1 1.17999 4.14501 10.1139 
593 2 11.8918 2.37832 5.5472 
782 1 7.44314 0.935353 5.46818 
814 1 10.4655 0.970468 5.61377 
618 2 8.76666 2.29904 5.84006 
748 1 11.5912 3.86023 6.58945 
71 1 11.8448 0.999777 9.48367 
222 1 10.467 3.94 10.0923 
317 2 10.1985 4.00399 7.97224 
348 2 7.54072 4.10367 8.19081 
401 2 8.82108 2.72744 9.97001 
459 1 8.78214 2.51702 7.90544 
494 1 7.38503 4.14755 10.1916 
512 2 11.9796 2.44642 10.4211 
649 2 10.0879 1.03876 7.75592 
687 2 7.40648 0.959637 7.63085 
860 2 12.0098 5.02653 10.4647 
138 1 18.4182 4.16873 6.16654 
44 2 15.1244 2.58946 5.77508 
167 1 13.6819 1.12361 5.565 
191 1 16.7348 1.28157 5.565 
59 2 16.7022 1.20231 7.65016 
88 2 14.1523 1.11584 7.5536 
2485 1 18.21 1.32804 8.5476 
186 1 13.556 3.97884 10.2178 
2362 2 18.2367 2.93157 10.3328 
338 1 15.129 2.57961 7.95852 
699 2 15.1571 2.63014 10.1516 
989 2 13.881 4.03192 8.3812 
1463 1 16.687 4.11205 10.1916 
1118 2 16.3169 4.0882 8.33706 
1277 2 5.81932 8.37523 5.59941 
757 1 4.20855 7.19045 5.69303 
818 1 1.13915 7.20634 5.51058 
930 2 2.6133 5.99165 5.67448 
1195 2 2.65289 8.67492 5.82648 
1236 2 5.72867 5.89427 5.60962 
377 2 5.86518 5.62927 10.4364 
916 2 2.67999 5.51756 9.93621 
892 1 5.90274 9.9476 7.2894 
2296 1 4.20979 10.0839 10.2331 
2047 2 3.98291 10.1057 8.26065 
1932 2 1.27144 10.2276 8.17756 
1797 2 2.60021 8.72574 10.0286 
1757 1 5.97752 7.1232 9.63301 
1653 1 2.59497 8.66687 7.94498 
881 1 2.66019 5.6239 7.84095 
1583 1 1.14106 10.2158 10.2791 
1567 2 5.81391 8.65063 10.4797 
1019 2 1.12824 7.14323 7.61819 
1092 2 3.71851 7.14664 7.59786 
2576 2 8.78533 5.70368 5.84882 
2523 1 11.914 10.0623 5.89239 
2440 1 7.31221 7.13267 5.72367 
2372 1 10.4072 7.13101 5.54496 
2253 2 8.87175 8.31746 5.88874 
275 2 9.03834 5.38892 9.98523 
1 1 12.0311 7.26456 8.4714 
2505 2 7.72028 7.10056 7.8492 
2398 2 10.3994 7.13708 7.65058 
199 2 11.9787 8.82241 10.2741 
247 1 8.9518 5.57571 7.91896 
1704 1 7.32929 10.1343 10.242 
1644 1 8.92931 8.6191 7.90537 
955 1 10.416 10.1907 10.1468 
1482 2 8.91007 8.96686 9.95918 
1306 2 7.34672 10.1079 8.11699 
1224 2 9.96062 10.171 8.08724 
294 2 15.1319 8.41912 5.81454 
545 2 15.0179 5.6886 5.81947 
729 1 13.5194 7.15248 5.56186 
833 1 16.582 7.05037 5.54014 
2193 2 18.2687 5.38364 10.2583 
648 1 18.2797 10.4067 7.2408 
1234 2 15.1098 5.57448 10.0417 
81 1 13.4965 10.1636 10.1129 
154 1 15.1346 8.6115 7.84658 
309 2 15.1356 8.73475 9.92843 
387 2 16.4677 7.0565 7.62451 
426 2 13.9463 10.0926 8.11792 
464 2 13.6443 7.13003 7.61563 
469 2 16.5773 10.2114 8.14315 
559 1 16.61 10.2756 10.1618 
898 1 18.1324 6.97116 8.48201 
996 2 18.2381 9.166 10.555 
1323 1 15.0357 5.60461 7.92096 
2378 1 4.22102 13.2411 5.66705 
2298 1 1.1739 13.2487 5.64796 
2180 2 2.75691 11.7963 5.92226 
2020 2 2.76124 14.5192 5.8967 
162 2 5.85356 14.9694 10.0685 
2215 1 2.77756 11.6962 8.01418 
2123 2 2.7242 11.4724 10.0462 
2111 2 1.58295 13.2052 7.75744 
2086 2 4.19716 13.2793 7.78218 
452 1 5.65456 13.5305 8.6872 
1715 1 2.67251 14.6814 7.95478 
1626 2 2.73883 14.8608 10.1671 
1407 2 5.76785 11.1748 10.5201 
743 2 8.9974 14.3852 5.54508 
886 2 8.78999 11.7137 5.61851 
1018 1 7.31938 13.2013 5.59031 
61 1 9.01046 14.6435 7.73211 
284 2 8.92502 14.6545 9.87795 
334 2 11.8961 11.2843 10.2297 
785 2 10.3184 13.024 7.49192 
829 2 7.65736 13.1943 7.4793 
1033 1 8.81748 11.6202 7.79649 
1350 2 11.9508 15.0419 10.4882 
1133 2 8.79183 11.6247 9.94631 
1274 1 11.9212 12.8507 8.39885 
109 2 18.291 12.0226 5.5399 
875 1 16.6653 13.209 5.56936 
913 1 13.5257 12.9413 5.46974 
1003 2 15.1177 11.657 5.66925 
1169 2 14.9621 14.476 5.65928 
1997 1 18.3507 13.2101 9.50741 
2045 2 18.1931 14.7084 10.3011 
496 2 15.035 11.573 9.88392 
509 1 15.0811 11.6069 7.84537 
1070 2 18.2157 11.6399 10.4399 
1394 2 14.9677 14.564 9.81883 
1119 2 13.5405 12.9895 7.50806 
1138 2 16.1231 13.1308 7.44612 
1327 1 14.9786 14.5483 7.83678 
505 1 14.9142 13.05 10.5629 
1963 1 4.30674 19.2709 5.52381 
1690 2 2.59884 20.5665 5.59156 
1790 2 2.75951 17.7403 5.65013 
98 2 5.89675 20.8151 10.358 
391 2 5.9413 17.6991 10.2286 
1778 1 1.13968 16.1682 10.1931 
1765 2 1.19732 19.0639 7.49114 
1710 2 3.76644 19.258 7.40816 
1488 2 1.43561 16.1179 8.25186 
1413 2 3.86426 16.31 8.31615 
1099 2 2.66849 20.8529 9.88287 
1154 1 4.26586 16.323 10.1207 
1309 2 2.61857 17.7044 10.0257 
1213 1 2.71517 17.7104 7.82825 
1262 1 2.63483 20.6905 7.75939 
51 1 6.01539 19.2264 9.41951 
2269 1 6.14715 16.3796 6.37082 
18 2 9.00171 20.6914 5.74175 
128 2 8.97051 18.1614 5.89515 
319 1 7.39009 19.3413 5.54943 
473 1 10.4902 19.1667 5.58653 
944 1 11.965 16.2584 7.19875 
491 2 7.82993 16.1614 7.93566 
4 2 10.2123 19.212 7.78602 
32 2 7.68173 19.2971 7.6962 
84 1 8.96208 20.6974 7.91189 
118 2 9.01446 20.9944 10.1474 
289 1 7.41043 16.1628 10.02 
470 1 11.8619 19.1099 9.58617 
574 2 10.4544 16.1211 8.00928 
599 2 8.9975 17.2359 9.84121 
708 1 8.99988 17.6854 7.86775 
800 1 10.4642 16.0726 10.1926 
1460 2 11.9611 17.5719 10.4169 
550 2 11.9968 20.6774 10.4317 
280 1 13.5442 19.1028 5.53582 
329 2 15.0519 17.6665 5.65672 
404 2 15.1155 20.4899 5.68561 
1042 2 18.2031 21.1244 10.3525 
957 1 18.1642 16.0953 5.88968 
349 2 14.0623 19.0769 7.49932 
362 2 16.6242 19.0011 7.51922 
2079 2 18.1222 17.2835 10.2118 
533 1 15.1779 20.5739 7.81777 
586 2 15.1866 20.7362 9.89502 
1780 1 16.5725 15.9916 10.0672 
1647 1 15.0784 17.5759 7.8113 
1603 2 15.0704 17.3084 9.84933 
1547 2 16.1768 16.0112 8.0695 
970 1 18.1493 18.8542 8.36368 
1515 2 13.5576 16.1137 8.05215 
1297 1 13.554 16.0694 10.1644 
1880 1 2.52282 1.11715 10.8718 
1857 2 1.10083 4.20182 12.1887 
1843 2 0.792811 1.22994 12.5203 
1831 2 4.30568 4.24327 12.2172 
1740 2 4.96018 0.924897 12.6037 
1707 1 2.77113 4.21108 13.1418 
1725 1 5.78039 2.61085 12.3419 
1812 1 4.55439 0.949582 14.6086 
1810 1 1.24975 1.26572 14.7977 
1799 1 5.59908 3.96716 15.4598 
1730 2 5.42773 2.6671 14.3094 
819 2 2.82008 1.04892 14.1676 
1657 1 8.57829 1.15076 11.1989 
1655 2 7.20389 4.15739 12.3398 
1645 2 7.40706 1.09167 12.4338 
1639 2 10.5492 3.84507 12.1319 
1577 2 11.2079 0.569024 12.7048 
1561 1 12.0009 2.33776 12.6871 
1557 1 8.53254 4.11081 13.3585 
1630 1 10.578 0.316628 14.685 
1614 1 7.66829 0.248231 14.4063 
1609 1 11.4063 3.32108 15.5064 
1586 2 7.88128 1.4429 15.6747 
1570 2 10.9019 2.28768 14.4035 
1524 2 11.4135 5.29509 14.3355 
1518 1 15.2707 1.13535 11.0275 
1505 2 13.3618 4.00656 12.2437 
1495 2 13.4247 1.54896 13.5588 
1483 2 16.8493 4.19632 12.2415 
1403 2 16.8965 1.1095 12.6266 
1393 1 18.2742 2.64827 12.4342 
1387 1 15.4096 4.19919 13.1672 
1459 1 18.3773 4.14227 15.1556 
1470 1 16.8598 1.37552 14.9004 
1462 1 13.9217 2.04255 15.2115 
1429 2 15.4704 2.45044 14.6011 
1396 2 18.4266 2.69244 14.4875 
1995 2 12.9147 3.44907 15.7745 
1693 1 5.72454 5.62547 12.5358 
867 1 5.76262 8.69699 12.5758 
910 2 4.48878 7.23059 13.1218 
1021 2 4.32049 10.1486 12.2976 
1041 2 0.964164 7.21188 12.747 
1055 2 1.04357 10.2719 12.3651 
1080 1 2.49003 7.18812 10.8511 
847 1 2.68664 10.3072 13.2105 
1680 2 2.75207 5.69488 14.9711 
1672 2 5.77774 5.64431 14.6422 
896 2 5.85334 8.75214 14.6215 
928 2 2.41985 8.09522 15.3738 
1005 1 1.35664 7.17645 14.4869 
1015 1 4.44016 7.17528 14.9783 
980 1 5.73476 10.2262 15.4617 
1545 1 11.9887 5.37539 12.443 
1535 2 8.68807 5.47272 14.8111 
595 1 11.9397 8.5644 12.3705 
629 2 10.6146 7.03201 12.4262 
750 2 10.5714 10.1822 12.1996 
767 2 6.91872 7.17176 12.8869 
787 2 7.24728 10.176 12.305 
801 1 9.33583 6.91554 11.1038 
572 1 8.7888 10.3461 13.1618 
605 2 11.7799 8.63555 14.5543 
647 2 8.97251 7.8634 15.0283 
695 1 11.5364 10.4766 15.5706 
717 1 7.41287 7.10749 14.5263 
730 1 10.2839 6.98339 14.4191 
278 1 18.1821 8.7211 12.5674 
322 2 17.0915 7.15661 12.2615 
451 2 16.6353 10.1883 12.2668 
463 2 13.0808 7.16185 12.9431 
486 2 13.3556 10.0935 12.1322 
500 1 15.1983 7.13036 10.7732 
1381 1 18.2607 5.68889 12.4001 
263 1 15.1102 10.1117 12.9719 
302 2 18.1237 8.58683 14.6008 
344 2 14.5072 9.13793 15.2207 
425 1 13.2084 7.8327 15.043 
436 1 16.9427 7.15319 15.344 
1372 2 14.7435 6.4251 15.2839 
1362 2 18.2685 5.7699 14.5879 
408 1 18.2684 10.2536 15.3129 
117 1 2.97892 13.4471 11.3007 
142 2 0.394395 13.3293 13.0448 
210 2 4.35405 13.301 12.4422 
248 1 5.81601 14.6866 12.2514 
832 1 5.72706 11.7024 12.3871 
146 1 4.21316 13.3642 14.6248 
157 1 0.874136 13.1498 14.9259 
206 2 2.44857 14.5906 14.6341 
816 2 5.7154 11.9196 14.3973 
820 2 2.69261 12 14.7888 
234 2 5.70477 14.6583 14.3757 
292 1 8.73748 13.1632 10.7323 
316 2 6.94848 13.2182 12.4259 
433 2 10.9838 13.0963 12.7951 
447 1 12.1078 14.5774 12.3963 
544 1 11.9377 11.5414 12.4725 
347 1 10.5312 13.2225 14.6738 
359 1 7.28156 13.2775 14.4948 
415 2 8.96183 14.5461 14.349 
439 2 12.2073 14.5076 14.5677 
516 2 11.912 11.7421 14.7168 
530 2 8.73639 12.0363 14.745 
252 1 18.0462 11.6686 12.6576 
538 2 13.3968 13.049 12.1478 
631 2 16.5793 13.1459 12.2627 
658 1 18.0722 14.7209 12.3777 
198 2 17.9525 11.5403 14.5123 
227 2 14.6877 11.9387 15.5526 
560 1 16.4604 12.4887 15.2938 
571 1 13.4509 13.0553 15.3691 
613 2 15.1206 14.2784 14.8971 
642 2 17.6931 13.7359 15.7251 
967 1 2.52574 19.2093 10.833 
133 2 0.735154 16.1195 12.2853 
144 2 4.63876 16.2947 11.948 
981 2 0.878778 19.3204 12.4877 
1085 2 4.80216 19.3437 12.837 
1108 1 5.95775 20.772 12.4651 
255 1 2.25986 16.0674 13.9596 
262 1 6.01297 17.6817 12.3221 
172 1 5.75713 16.1209 15.0464 
265 2 2.54656 17.9588 14.6137 
271 2 5.84092 17.5857 14.3115 
1011 1 4.25342 18.9654 14.3153 
1029 1 1.08413 19.1329 14.3593 
1065 2 4.20013 19.5282 15.8213 
300 2 7.2159 16.1471 12.0409 
340 2 10.6193 16.1384 12.3148 
475 1 11.9769 17.5802 12.4979 
1168 1 8.94783 19.3749 11.9334 
1182 2 7.44977 19.1016 12.6912 
1280 1 12.0527 20.6671 12.4727 
1264 2 10.4623 19.2239 12.8475 
453 1 9.10376 15.9241 13.3437 
374 1 12.3331 15.9408 15.0818 
1095 2 6.6672 21.0048 14.0476 
492 2 12.3568 17.3265 14.4715 
1196 1 10.4914 19.8327 15.2209 
1211 1 7.30641 18.96 14.7756 
1266 2 12.0895 20.556 14.5397 
670 1 15.1376 15.9816 12.9173 
521 2 13.5747 16.0748 12.1441 
542 2 16.6295 16.07 12.1392 
672 1 18.0512 17.6609 12.2507 
1473 1 18.1814 20.7182 12.2811 
1435 2 16.9064 19.147 12.2613 
1345 2 12.9394 19.0164 12.7515 
1324 1 15.3887 19.2954 10.9688 
690 2 18.1246 17.948 14.1886 
1467 2 18.1137 20.5784 14.3789 
1432 2 15.1433 19.6141 14.2353 
1380 1 13.5416 18.9776 14.6637 
1370 1 16.6531 18.9596 14.5286 
2361 2 1.0258 3.029 18.2587 
2341 2 3.94298 3.87151 17.2762 
2201 1 4.89163 4.09118 18.7375 
636 1 2.83318 2.11493 17.5297 
1768 2 4.36168 1.23077 16.3704 
1760 2 1.34063 1.26798 16.5786 
1961 1 0.724904 4.30023 19.0189 
2409 1 4.39774 1.59221 20.1983 
1916 2 5.60765 4.57457 19.9449 
1643 2 3.58342 1.01616 18.9586 
2324 1 2.70024 5.15019 16.6237 
1929 1 0.41166 0.195193 21.0971 
2147 2 9.33564 5.11262 19.8558 
2107 1 10.5055 4.8161 20.8663 
1595 2 10.6954 0.539784 16.5973 
1089 1 8.88431 1.12021 17.1048 
2294 2 8.0889 1.13921 18.6884 
666 2 9.87529 3.19273 16.8173 
935 1 8.77834 4.84696 16.8233 
2162 2 9.93807 1.19119 20.5699 
2083 2 12.0687 4.49193 20.4292 
1292 1 8.7141 0.326041 20.0815 
2300 1 7.46333 5.16619 20.0521 
2033 1 12.6347 1.06155 17.7001 
1871 1 18.364 1.79592 17.6038 
1052 2 12.5141 2.11074 18.9999 
2026 1 12.6581 3.74664 18.9467 
2001 2 14.8217 2.85934 19.1236 
1991 2 15.384 4.14822 16.7715 
997 1 15.3881 2.46307 17.6901 
1450 2 14.1194 1.14542 16.8097 
1434 2 17.0365 1.9726 16.9426 
851 2 17.8129 0.75314 19.2704 
2458 1 13.7662 4.94255 16.4749 
1984 2 13.3825 5.02026 18.2082 
1845 1 13.9164 1.59397 20.4364 
749 2 15.475 0.989972 20.7313 
799 1 16.4137 0.196498 19.4249 
1948 2 0.515392 5.45882 19.9336 
941 2 5.0117 7.19871 16.7536 
971 2 0.832219 7.16091 17.6594 
1511 1 2.17482 9.72058 20.0631 
1492 1 1.54976 8.84464 17.1455 
1454 2 1.26311 9.04704 19.0235 
1366 2 6.13666 9.25902 18.8152 
1416 2 3.70602 9.81819 19.9367 
662 1 0.609076 7.38487 19.5891 
1449 2 1.14739 10.191 16.5381 
1441 2 4.06108 10.5819 17.1425 
2158 2 7.39888 5.73577 17.9427 
1105 1 7.55044 9.79089 18.4424 
1251 1 6.55262 7.40041 17.3032 
683 2 7.94076 8.6002 17.3478 
1069 1 9.07388 8.8134 16.2636 
1183 2 9.95228 10.2385 16.353 
789 2 17.462 7.47052 20.5655 
964 1 12.9023 8.49345 18.2439 
372 2 16.345 5.61437 19.0773 
395 2 12.6733 6.93474 16.5146 
806 1 14.5703 5.92375 19.166 
883 2 12.9303 10.1593 17.1056 
902 2 14.3153 7.78883 19.0956 
954 1 15.9463 8.81466 20.1028 
1471 1 17.099 5.71416 20.6705 
962 1 14.4925 10.4406 16.2445 
1546 2 14.7588 5.64854 20.8589 
1378 1 4.70771 10.6572 18.8064 
114 1 5.20521 13.3072 17.688 
182 2 1.48964 12.9364 16.981 
192 2 3.93976 13.3284 16.7895 
240 1 2.09916 14.3034 17.8137 
1402 1 2.80472 11.589 16.6166 
1343 2 5.35525 12.2567 19.0681 
208 2 5.32996 14.9416 18.3625 
1697 1 4.61028 13.0526 20.6929 
27 2 0.196341 15.1591 18.5887 
229 2 2.84941 13.3339 20.968 
158 2 5.48507 14.5523 21.0895 
2172 1 6.4943 15.1833 19.5427 
1163 2 8.07342 11.2183 18.3957 
1241 1 7.32032 12.3375 19.6774 
382 2 7.19724 13.288 16.5751 
402 2 10.1479 13.2572 16.8457 
1156 1 8.89047 14.8643 17.443 
1286 1 8.89764 11.7435 16.6383 
861 1 11.5675 12.9394 17.7518 
2281 2 7.67532 13.9847 20.3154 
859 2 16.6077 10.8258 16.6469 
17 2 15.6011 15.0553 18.4989 
87 1 16.9004 11.1182 18.0023 
590 2 13.1037 13.5736 17.1819 
894 1 14.2414 14.4036 17.9691 
844 2 16.5718 10.7564 19.5885 
577 1 17.3634 15.0972 17.4909 
2056 1 16.3686 11.9013 21.0002 
1227 1 4.75321 18.5091 18.8436 
1443 2 5.77773 18.2241 17.7118 
190 1 2.76133 18.5381 16.7028 
221 2 3.16359 18.1342 18.2169 
1044 2 5.06997 19.8837 19.6301 
1081 2 1.7446 19.8471 16.2137 
196 2 1.70418 16.0049 20.5233 
591 1 5.53159 19.5919 16.5423 
478 2 8.13131 17.6802 15.9659 
1139 1 11.4697 18.2188 20.5676 
73 2 7.74794 16.0132 18.3667 
60 2 8.47519 18.9427 18.7966 
77 2 7.07724 19.8798 16.173 
1123 1 7.28771 17.5178 17.7744 
1260 2 9.79891 20.72 16.8051 
1440 1 8.16514 20.3477 17.3763 
48 1 8.4976 19.4465 21.0552 
1084 2 8.31817 21.1557 21.0703 
1054 2 10.8171 16.4771 21.0241 
679 2 13.7115 19.1085 16.4027 
23 2 13.3525 16.8438 20.7666 
251 1 18.5335 16.3168 20.4663 
1229 1 17.3981 18.8272 19.2244 
35 2 17.2271 17.3794 19.7261 
14 1 15.3895 16.5951 19.6937 
869 1 15.1326 18.5305 17.2052 
1422 2 16.245 18.0296 16.0438 
1399 2 14.4813 17.3838 18.3274 
1283 2 16.1449 19.7385 18.2999 
1698 1 1.70335 3.89635 25.1299 
1617 2 1.3728 1.96878 25.0534 
1438 1 0.429637 1.10616 23.9899 
737 2 1.3373 4.58279 23.6314 
2334 2 5.75522 3.25539 23.5397 
1887 1 6.07079 1.76791 22.6762 
1792 2 5.18696 1.07068 21.4712 
2134 2 3.56235 5.03853 25.6823 
1751 1 4.28872 1.95661 26.3004 
326 1 6.99657 4.37241 23.6302 
2473 2 11.5529 1.25805 25.9005 
2217 1 10.7262 0.432668 24.1076 
2190 1 8.82929 3.17207 25.429 
2175 2 8.58219 1.66627 26.0817 
2137 2 11.3999 1.81198 22.8921 
2129 2 7.61099 3.51013 21.7524 
2092 2 7.19155 0.796807 23.7738 
2013 1 7.22606 0.865785 25.9099 
1291 2 7.65785 4.33293 25.6168 
2195 1 10.4566 3.29355 23.1817 
1437 1 11.5519 2.8995 25.7963 
1226 2 10.1416 3.35719 24.7644 
2141 2 10.4731 4.66252 22.4748 
2377 1 11.1287 0.94304 21.4743 
1349 1 17.7055 2.93824 21.7334 
2375 2 18.515 1.66453 22.083 
982 1 13.0287 2.24569 23.2685 
2543 1 14.4013 3.31242 25.6938 
2513 2 17.2252 1.23508 24.6133 
2496 2 14.3181 1.42684 24.3987 
2426 1 15.7963 0.882385 23.8092 
2380 1 13.1691 0.3993 25.6231 
1248 2 12.9427 3.34252 24.927 
226 2 17.5616 4.58956 21.9708 
1530 2 15.2592 4.84821 24.7618 
2102 2 13.6889 2.87452 21.9675 
664 1 16.6508 5.27163 25.3434 
890 1 13.3641 4.63151 21.6487 
2524 1 3.81497 9.35601 23.6051 
2381 1 4.64038 6.2049 24.5242 
2030 2 4.23353 7.19721 22.8538 
1731 2 1.92284 9.62174 23.8459 
653 1 5.63591 7.05187 21.6252 
606 1 2.51295 6.90793 21.9748 
1514 1 0.669094 9.3218 22.5529 
696 2 1.5687 7.92291 21.3557 
1207 2 9.72563 7.48875 22.3658 
1983 2 6.59906 7.51476 25.3241 
1933 1 6.68524 9.7905 25.0606 
1679 1 9.79901 9.0611 23.4254 
1565 2 7.95671 5.83205 23.6796 
1410 1 8.4552 6.18104 25.2364 
1194 1 11.2716 6.28516 23.4044 
1223 2 10.8548 8.24894 24.3353 
2251 2 7.61845 9.57854 23.4548 
1147 1 12.2634 9.01673 25.102 
1177 1 8.43747 6.66673 22.3763 
2263 2 7.1497 6.58424 21.2335 
1506 2 10.9472 10.1681 26.3138 
2327 1 18.5369 5.41484 23.314 
2522 2 17.6086 6.24492 24.2497 
1188 2 12.7962 6.98095 25.1737 
163 1 16.8997 7.6895 23.6805 
330 2 15.234 7.58754 23.7564 
607 1 14.2244 6.15707 24.0348 
783 2 12.9947 5.76155 22.9281 
2232 2 17.6714 9.09807 23.4185 
2244 1 17.1936 10.5487 24.4998 
848 2 13.6872 9.90994 26.2377 
722 2 16.8761 9.5209 26.2088 
1838 2 5.4916 10.7498 24.1505 
1820 1 5.29372 12.8882 24.7111 
1804 1 2.60537 13.8337 24.1843 
1784 2 1.81665 13.168 25.6336 
1764 2 4.20998 14.0443 24.3602 
1743 2 2.18662 12.2164 23.4588 
1688 1 1.42213 11.2425 24.7703 
2549 1 2.01729 12.0213 21.8948 
1648 2 1.6979 14.8598 23.1004 
2268 1 0.406511 15.7489 23.5038 
1615 2 4.97292 15.7139 26.1729 
49 2 5.09398 11.6643 21.7452 
170 1 2.43585 15.0452 21.563 
1723 1 4.91964 15.8801 24.417 
751 2 1.39403 10.6702 21.2761 
1096 2 10.0684 10.8428 23.2744 
1575 1 6.7115 14.4579 22.4401 
2392 1 10.7888 11.5735 24.9082 
2384 1 7.96114 12.5355 25.1368 
2353 2 9.55025 12.7261 25.3291 
2312 2 6.83962 12.8989 23.5061 
2214 1 9.53905 11.7787 21.9774 
2206 1 6.59326 11.4957 22.581 
1660 2 6.49606 15.7523 23.4494 
86 2 10.2784 14.414 22.3389 
2456 1 12.1275 15.2235 21.6601 
1874 2 6.34019 13.0592 26.1571 
1623 2 7.58797 10.6804 26.0776 
1148 2 7.92405 11.5556 21.3195 
260 2 14.6398 11.4523 21.504 
2424 2 12.5687 10.658 24.1678 
2213 2 18.4655 11.2428 25.359 
2429 1 13.7642 11.7091 24.896 
2386 2 13.839 13.0874 23.7073 
2317 2 17.3804 11.7298 22.6595 
2286 2 15.7918 12.1449 25.3568 
2254 1 16.7146 13.6416 24.5568 
2519 2 17.2837 14.6976 23.4155 
2405 1 13.9531 12.9415 22.0888 
36 1 16.3489 14.8288 21.9109 
2352 2 12.7803 13.7605 21.1326 
600 2 15.7715 13.5425 21.2285 
2449 2 12.4213 12.4462 26.1756 
147 2 4.31926 19.7788 22.3579 
2406 1 4.09872 18.5862 23.4242 
2021 2 5.34301 17.9734 24.1835 
1701 1 2.19657 17.6158 25.3124 
1640 2 3.82748 16.4938 22.7307 
2490 2 2.6289 18.8042 24.2674 
237 2 0.783744 16.7016 25.0209 
918 1 2.20941 20.5166 24.6988 
1619 1 5.53667 19.8231 21.1896 
1254 2 10.4858 19.5488 21.2133 
8 1 9.40966 16.1788 22.3847 
1939 1 6.24616 18.6614 25.5357 
42 2 8.32796 17.1956 21.8582 
611 1 10.9332 20.7072 22.6799 
693 2 10.1867 20.039 23.8966 
95 1 11.0883 19.4284 25.1584 
335 2 7.80657 18.4904 24.3373 
2091 2 9.95253 16.6082 24.0401 
831 1 8.86519 17.3569 25.0876 
1676 1 8.48264 19.9108 23.9807 
872 1 11.6246 16.6887 24.2599 
101 1 6.88428 17.6391 22.8918 
589 2 12.0684 18.2719 24.8069 
476 2 6.75424 18.9586 21.5439 
652 2 12.5923 16.0859 25.8303 
2121 2 12.753 16.0357 23.0284 
53 2 18.4442 17.007 22.303 
30 2 15.5831 16.1379 21.566 
458 2 15.2054 18.9685 21.826 
1909 1 14.367 16.9767 22.5171 
264 2 15.8094 16.351 25.7438 
288 1 14.0628 17.8059 25.4478 
296 1 17.8606 17.3861 25.7448 
727 2 14.5137 18.1264 23.9605 
893 2 17.5489 18.7709 24.8015 
254 1 14.632 19.7919 23.3632 
1175 1 17.6784 18.4418 22.8328 
235 1 16.7513 20.0927 25.3811 
113 2 13.2334 20.8661 22.633 
1965 2 15.5206 20.6853 24.2822 
1668 2 2.87366 1.85563 27.2818 
2472 1 1.32446 1.35455 26.6829 
2204 2 1.15911 4.5927 26.4462 
2097 2 5.79134 1.97221 26.9054 
1883 1 5.79102 1.6417 29.0261 
1767 1 2.88354 1.91158 29.1846 
1588 2 2.95763 3.52758 29.4623 
1469 2 1.29537 1.04588 29.7105 
1390 2 4.34911 0.921193 29.5272 
1354 1 1.26437 0.692912 31.2882 
1300 1 4.37592 0.365949 31.3363 
1231 2 6.0908 3.82012 29.049 
1689 1 1.48444 4.54255 29.6694 
1444 1 4.47629 4.4458 30.1508 
164 2 0.047676 4.78583 31.2777 
1289 1 6.43421 4.29244 27.2166 
1270 2 11.3813 3.80192 27.2328 
1694 1 10.1713 5.02035 27.4235 
2316 1 10.2888 0.504635 26.7335 
2504 1 7.47761 0.083888 31.2118 
985 2 10.2869 0.514984 28.3364 
1043 2 7.28109 0.796685 29.3144 
1320 1 9.07472 2.37595 29.0906 
1180 2 9.1753 3.96572 29.1116 
1031 1 10.7514 4.97172 30.2936 
1271 1 7.55093 4.89006 30.3993 
951 1 12.0648 2.4801 30.9058 
747 2 12.4287 3.72241 29.7248 
825 1 12.6827 3.74222 28.2526 
269 1 18.3115 3.96839 27.3486 
2558 1 17.0533 1.41762 26.5086 
2525 2 15.6492 2.07877 26.9962 
2303 2 18.3864 2.03619 27.2353 
384 2 16.9171 4.84837 26.8195 
455 2 14.0515 4.24506 27.2969 
1646 1 15.4293 4.96403 28.0432 
224 2 18.5317 3.70878 29.0589 
385 1 18.4421 1.93873 29.1337 
413 2 16.9495 1.06166 29.5765 
485 2 14.1038 0.954249 29.3637 
1911 1 16.8438 0.688856 31.3063 
1904 1 13.8249 0.453361 31.0497 
674 2 15.5879 3.73093 29.4882 
852 1 15.4574 2.12808 29.081 
456 1 17.1157 4.3507 30.2531 
803 1 14.1373 4.47883 30.6418 
1742 1 2.65545 5.93176 27.226 
2096 2 2.82068 7.57935 26.5396 
1892 1 2.86134 9.02394 27.4356 
2570 2 1.67996 10.1414 26.6366 
2443 2 4.95041 10.0192 26.6283 
1759 2 2.92435 9.0659 29.0112 
781 1 4.41877 10.0325 29.8833 
921 1 1.41854 10.0096 29.8875 
1550 2 1.55919 6.29952 28.6394 
1534 2 4.26759 6.22043 28.7412 
1509 2 2.83484 5.71419 30.6861 
1503 2 4.14012 8.36483 31.3345 
1490 1 2.83317 7.35388 29.9352 
1303 2 1.44395 8.4349 31.2778 
2267 1 6.18347 7.6072 28.5401 
1699 2 6.05459 9.17729 29.1971 
1157 2 5.86618 5.48007 31.3903 
1107 1 9.3467 9.42284 27.114 
1247 2 9.55332 6.24 26.3628 
1348 1 12.2563 7.26799 28.528 
908 2 10.3909 8.71377 31.014 
994 2 7.98465 8.61324 31.21 
1494 1 10.7291 10.1678 30.0226 
1026 2 9.15307 9.29654 28.7953 
1066 1 9.18423 7.50215 29.9523 
1086 2 9.2331 5.82692 30.9694 
1117 2 10.8213 6.37334 28.9012 
1142 2 7.62074 6.61157 29.1513 
1296 1 7.56542 10.2093 29.9062 
936 2 12.3262 9.3128 28.9307 
122 1 15.1818 9.12528 26.8107 
534 1 18.3784 7.37538 28.1824 
11 2 18.4162 9.1874 28.6628 
38 2 15.3657 9.07383 29.0322 
2529 2 16.8461 8.4627 31.2802 
2212 2 14.1698 8.36725 31.3287 
524 1 15.5068 7.29831 30.1601 
575 2 16.7203 6.23862 29.1573 
609 2 14.1863 6.25895 29.2453 
1580 1 13.8596 9.97821 29.9545 
1360 1 16.9107 9.9824 29.858 
76 1 18.487 10.5977 27.3252 
645 2 12.4216 5.59821 31.5678 
553 2 15.67 5.58951 31.4324 
563 1 3.15328 12.6194 28.1138 
46 2 1.2828 11.7543 28.7038 
299 2 1.28135 13.6511 31.1595 
2115 1 5.90181 12.8173 29.9996 
548 2 4.54742 13.8191 31.0991 
1903 2 5.8465 11.1375 30.8339 
1823 2 4.60037 11.8875 28.6555 
1683 2 2.85192 10.679 31.1014 
1004 2 6.06551 14.6121 28.8226 
1024 1 4.47282 15.6263 29.888 
1265 2 2.93163 14.8051 28.8679 
1398 1 1.31225 15.5236 30.0337 
926 2 5.97976 15.8611 31.0899 
2287 1 2.69698 12.9705 31.5571 
1822 1 6.24022 11.7394 27.3358 
527 1 6.36762 14.6587 26.7249 
310 2 12.2975 14.4921 28.7219 
2178 1 9.02051 13.0244 28.442 
424 2 9.05129 14.8505 29.0347 
507 1 7.49238 15.5081 30.1999 
554 1 12.2924 12.8125 29.8766 
1885 2 7.25234 13.7374 31.3046 
735 2 10.9425 11.7841 28.9169 
775 2 9.02875 10.7933 31.081 
1708 2 7.38984 11.9451 28.7691 
1572 2 11.1551 13.98 30.9484 
325 1 10.6603 15.4782 29.9313 
1087 1 12.3083 10.9069 27.4815 
716 2 8.05592 15.5623 26.4606 
2 1 18.4964 14.8206 27.3734 
82 2 18.467 14.5034 28.8987 
678 2 12.4044 11.0233 31.0164 
185 1 12.4299 14.1264 26.7637 
2250 2 17.1264 11.6944 28.439 
383 1 15.6446 12.55 27.7223 
1803 1 18.4957 12.7171 29.7106 
96 1 16.9119 15.4042 30.0604 
2450 2 15.4678 10.7604 31.0755 
149 2 15.4727 14.8133 28.6731 
176 1 13.8302 15.4414 29.9233 
2035 2 18.3981 10.8887 30.5121 
588 2 13.6204 13.8425 30.9659 
866 2 13.6576 11.6484 28.7102 
1606 1 15.6652 12.5942 31.404 
1124 2 17.0707 13.5278 31.0573 
68 2 18.3777 15.675 31.2342 
1864 1 3.09853 19.7486 27.4563 
1585 2 3.03349 17.8712 26.7071 
1569 2 5.73407 17.9623 27.0077 
1353 1 4.41923 17.0186 27.1324 
2454 2 1.84843 20.4958 26.3885 
993 1 0.600428 21.0796 26.9665 
393 1 4.35606 20.7803 30.0294 
405 1 1.32646 20.8432 29.816 
1525 2 2.89402 19.8461 29.0206 
1480 2 6.02843 20.1346 29.1658 
1071 1 2.77966 18.2433 29.9827 
1112 2 2.89436 16.4452 30.8437 
1185 2 4.4842 17.289 29.0398 
1232 2 1.12856 17.2077 29.2566 
2116 2 4.53741 21.1289 26.8014 
446 2 1.41533 19.3221 31.304 
471 2 4.02177 19.4145 31.3361 
628 2 9.03184 17.8371 26.6546 