LAMMPS data file via write_data, version 7 Aug 2019, timestep = 10000

2577 atoms
2 atom types

0.0000000000000000e+00 1.8560400000000001e+01 xlo xhi
0.0000000000000000e+00 4.2399999999999999e+01 ylo yhi
-6.1952207870757647e-01 4.2637225507392586e+01 zlo zhi

Masses

1 55.847
2 15.9994

Atoms # charge

7 1 7.9422683006319039e-01 3.2026871566251249e+00 8.4162882088624580e-01 2.5507957846771920e+00 0 0 0
52 1 9.0165923838205309e-01 1.0911757197356076e+00 3.8809234542210396e+00 1.0704146919763284e+00 0 0 0
106 2 -6.2293074267883575e-01 8.1958693396885429e-01 4.0148194191928921e+00 3.1677905836324776e+00 0 0 0
124 2 -6.0886727755562586e-01 2.5993648268999761e+00 2.6992979353476771e+00 8.2540688311440247e-01 0 0 0
205 2 -6.6326795067825117e-01 1.0530427727164922e+00 7.7470535487689984e-01 3.3422796298440138e+00 0 0 0
223 1 8.0276870467999928e-01 4.1177255806167175e+00 3.4628208078811311e+00 8.7432482195001360e-01 0 0 0
241 2 -6.5389945238097702e-01 4.4084816110100835e+00 3.9249287101587260e+00 2.8127762884144802e+00 0 0 0
259 2 -7.1643277688835294e-01 4.6886710048741227e+00 6.2862757885776543e-01 3.4438432357379640e+00 0 0 0
277 1 9.1159774253653036e-01 5.8619478309954633e+00 2.2511147403121430e+00 3.0805694869515343e+00 0 0 0
412 2 -7.5707102982908125e-01 5.8406537766351097e+00 2.1592458667617906e+00 1.1214040743708551e+00 0 0 0
178 2 -7.1361729119236161e-01 2.2587835547172443e+00 5.1175303432567203e+00 6.6097525562533688e-01 0 0 0
358 1 7.8039546419326355e-01 6.0072772047939278e+00 7.0940871593555943e-01 3.1630896836753042e-01 0 0 0
466 2 -5.4132383233127013e-01 5.9870272260671493e+00 4.5461394939443434e+00 -4.3811378373185689e-02 0 0 0
331 1 6.6267047319165595e-01 9.4593076168415422e+00 1.2423864837654959e+00 2.1007802878043966e+00 0 0 0
376 1 9.8922289619889048e-01 7.1878660971096480e+00 3.5326720980445678e+00 1.0060633430582031e+00 0 0 0
430 2 -7.6779597327721505e-01 6.7802261633815384e+00 3.7278011267318183e+00 2.5771241843597861e+00 0 0 0
448 2 -5.8218579957427841e-01 8.7465795787417910e+00 2.4990599441764672e+00 7.4560552107389200e-01 0 0 0
529 2 -5.9359181576443731e-01 7.4143651802741291e+00 7.2547340021509454e-01 3.2056333690392491e+00 0 0 0
547 1 6.5003377281228569e-01 1.0921940374917266e+01 4.1491666331943264e+00 2.0250541479920320e-01 0 0 0
565 2 -7.7339463150868781e-01 1.0964544642519600e+01 3.9964323222820721e+00 3.0935366662582799e+00 0 0 0
583 2 -6.5959458409966332e-01 1.1481684172954617e+01 7.6576212049360304e-01 2.2323741370562122e+00 0 0 0
601 1 8.1004322210213209e-01 1.2092928159349013e+01 2.5485821923768066e+00 2.8068715167284926e+00 0 0 0
682 1 6.6050383639698340e-01 1.2654622927000734e+01 1.1691555248676120e+00 1.9076308087333002e-01 0 0 0
736 2 -6.8825575617486845e-01 1.2593579250840733e+01 3.0390814920116993e+00 4.4915437518698736e-01 0 0 0
502 2 -4.7194804147474018e-01 8.7784439907328338e+00 4.9881630867411628e+00 2.9845374548097309e-01 0 0 0
619 1 7.2246101142197472e-01 9.1684588814408610e+00 3.7185386858338254e+00 4.3660906974103524e+00 0 0 0
790 2 -7.5969696125016062e-01 1.1951720867822864e+01 5.5391863099594776e+00 1.2801592803128781e+00 0 0 0
925 1 9.3207279587684311e-01 1.8110440922496174e+01 2.1243049201040880e+00 3.0381745817174997e+00 0 0 0
655 1 8.8897589810283451e-01 1.5795866337188398e+01 5.5076583247264532e-01 2.3272897183719174e+00 0 0 0
700 1 9.3043556972267871e-01 1.3880041717075358e+01 4.3236125627734934e+00 9.4372647037272928e-01 0 0 0
754 2 -6.5813296115616637e-01 1.3895943250144578e+01 3.4983643579642294e+00 2.4927532858905268e+00 0 0 0
772 2 -6.3742998690565755e-01 1.5666750336090690e+01 3.6190344806430290e+00 1.9456146430339227e-01 0 0 0
853 2 -6.7241409547868924e-01 1.4054345704156825e+01 2.7437094019760438e-01 3.4848063576806463e+00 0 0 0
871 1 8.6219258459649051e-01 1.6854556956364959e+01 3.8760546941095102e+00 9.1221114791908420e-01 0 0 0
889 2 -7.1345689818333236e-01 1.6991096998456328e+01 3.9314661804111264e+00 2.9945014633491525e+00 0 0 0
1006 1 7.2678786833715525e-01 1.8335728766163903e+01 8.0706532749103821e-01 3.6984849172046641e-01 0 0 0
1060 2 -7.5246464532553003e-01 1.8371043160650245e+01 2.5094108135911886e+00 1.2144778970155599e+00 0 0 0
1114 2 -5.0916732523093367e-01 1.8146353916595871e+01 4.9026241344558805e+00 -3.0364982537144170e-01 0 0 0
907 2 -8.9799977931667974e-01 1.6916062485693534e+01 7.8154215616290212e-01 3.0982057817567181e+00 0 0 0
826 2 -5.5300281030560139e-01 1.4580421493940211e+01 5.8730640928324638e+00 3.2152477716215661e-01 0 0 0
313 1 9.4337096117326147e-01 6.0945477466255298e+00 5.2392682100018675e+00 3.1503182583277876e+00 0 0 0
1888 1 8.0153137899447291e-01 6.0249602969775928e+00 8.5802385954014824e+00 2.8524193875171115e+00 0 0 0
1870 2 -6.5771357181927614e-01 4.7478177075375312e+00 7.1221021799929742e+00 3.4539917404567895e+00 0 0 0
1852 2 -6.3349722157849497e-01 4.6866227268789560e+00 1.0013316762985321e+01 2.9809613583324497e+00 0 0 0
1834 1 8.3175694419906021e-01 4.2327376135851589e+00 1.0000295102238393e+01 8.2141694491368600e-01 0 0 0
1816 2 -6.7264510765622731e-01 8.6064937702646716e-01 6.9008465849847047e+00 3.7474452485414260e+00 0 0 0
1735 2 -5.5743911756876741e-01 2.8856134816594632e+00 8.6536524443288112e+00 1.5786367315525832e-01 0 0 0
1717 2 -7.2922951642992484e-01 8.4797454120411564e-01 9.7892967837096609e+00 3.0347094551605327e+00 0 0 0
1663 1 8.2905910862782406e-01 1.0680447745331980e+00 9.9684055369607076e+00 1.1554232300397953e+00 0 0 0
1627 1 7.5136069686066254e-01 2.4703145688652826e+00 6.6431661339448391e+00 8.5030520808010646e-01 0 0 0
2014 2 -7.0417298622337121e-01 5.8143746062891930e+00 8.3383774970257178e+00 1.0559211110879725e+00 0 0 0
1960 1 6.8543218853301602e-01 5.5475584997592211e+00 6.8486142407463779e+00 2.5416826638325080e-01 0 0 0
2131 2 -7.1042734538300745e-01 6.9922618576892068e+00 6.2524932101926103e+00 1.8388031030829075e+00 0 0 0
637 1 1.0709877167349531e+00 1.1460274092426802e+01 5.4068551598958940e+00 2.6494256910783651e+00 0 0 0
2185 2 -6.5829883372902720e-01 1.0427287722083740e+01 6.7793748302111121e+00 3.1078401127085726e+00 0 0 0
2167 2 -7.5281596932239903e-01 1.0556315709595621e+01 9.9099184911940448e+00 2.9576260832714012e+00 0 0 0
2050 2 -5.9294861537453492e-01 9.1365430495424178e+00 9.2375976447535919e+00 4.2468362814998634e-01 0 0 0
2032 2 -7.5361362948240174e-01 7.5262115990054443e+00 1.0361888449317716e+01 2.9683669245132065e+00 0 0 0
1942 1 7.1208595879591863e-01 8.4145774568078835e+00 6.7288693106982933e+00 1.9969441710771147e+00 0 0 0
2329 2 -7.9440350065875098e-01 1.2125426649746982e+01 8.7855190802559040e+00 1.0864590611717400e+00 0 0 0
2149 1 9.1087665120383643e-01 1.0516614697239074e+01 1.0334885144097409e+01 9.0879906591119897e-01 0 0 0
2275 1 6.7255929666387548e-01 1.2237171944959213e+01 7.4164907598799932e+00 1.7922177816864687e-01 0 0 0
2203 1 9.7322816726160033e-01 1.1696842543011714e+01 8.3452639403290991e+00 2.9577228383100267e+00 0 0 0
2221 1 8.0592289974173215e-01 8.8780495054991597e+00 9.8320316216217822e+00 3.5596986508237927e+00 0 0 0
2253 2 -6.7822095804278137e-01 9.0727709542436248e+00 7.5506404021010605e+00 4.9876865288662078e+00 0 0 0
2530 2 -6.4156886174325090e-01 5.9749437547006023e-01 7.8263237383595481e+00 1.0597079702138461e+00 1 0 0
961 1 9.1637849120225712e-01 1.8157018856428621e+01 5.4191088287585583e+00 3.4470898823254812e+00 0 0 0
2569 1 7.0593503516595335e-01 1.8218244317681243e+01 7.5360283872472316e+00 -5.0622614354698448e-01 0 0 0
2518 1 8.9875780743190958e-01 1.8427814068037325e+01 8.3481611075042803e+00 3.1010753709735575e+00 0 0 0
2500 2 -7.3956340804587517e-01 1.6906369543154494e+01 7.2432345831598557e+00 3.1021043789487317e+00 0 0 0
2482 2 -6.8607066205615252e-01 1.6762028672507483e+01 1.0107384829066472e+01 2.1314178128483379e+00 0 0 0
2464 1 8.8375562676001795e-01 1.6480699479512495e+01 1.0004779544171953e+01 6.6459616525622967e-01 0 0 0
2446 2 -4.6310677435458086e-01 1.2995493181518473e+01 6.6442997871797793e+00 3.1822146414924566e+00 0 0 0
2365 2 -6.2421265669816517e-01 1.6671211542870914e+01 8.1237836883766565e+00 -1.3740412663714197e-01 0 0 0
2347 2 -6.4060775372407097e-01 1.3186183858194907e+01 9.6253239575185248e+00 3.2061824628771873e+00 0 0 0
2293 1 8.8940893344881866e-01 1.3430467029617521e+01 9.8268438427335969e+00 1.2113366749134953e+00 0 0 0
2257 1 6.7484627249399787e-01 1.5962250814235027e+01 6.7980890368307323e+00 1.6045207411227296e+00 0 0 0
1789 2 -6.0038157878393417e-01 2.5701493481800113e+00 1.1102373585458951e+01 1.0795413335623900e+00 0 0 0
2024 1 7.1616217326409981e-01 2.3459769761707872e+00 1.2584029234793292e+01 2.4483319900976261e+00 0 0 0
1914 2 -5.9989992812256165e-01 4.2668677651256166e+00 1.4071007038426789e+01 7.9991474662074169e-01 0 0 0
1802 2 -5.9790786815300390e-01 4.3746526211855308e+00 1.2798735582830592e+01 3.9610200162763651e+00 0 0 0
1783 1 8.7151884389054801e-01 6.0108952250601106e+00 1.4256124266136213e+01 3.5589908606126905e+00 0 0 0
1729 1 9.0110131985256614e-01 5.7338385326622578e+00 1.3034947577586104e+01 1.1004020278089970e+00 0 0 0
1849 2 -7.0775665216273775e-01 5.5881124011730554e-01 1.2806527444243251e+01 2.5246259794020092e+00 0 0 0
2068 2 -5.8175371902514206e-01 5.5110761726663373e+00 1.1342533404297763e+01 2.5405920082094663e-01 0 0 0
1924 1 9.4969779478177430e-01 5.8755507411222130e+00 1.1441150582738899e+01 3.6624835048443782e+00 0 0 0
1678 2 -6.4427896128345608e-01 6.3711444038173264e+00 1.5295932674297754e+01 5.4616302584294851e-01 0 0 0
1925 2 -5.6913966770483926e-01 1.1593447145716589e+00 1.5596114872290881e+01 2.6017332126589294e+00 0 0 0
1578 2 -8.2785524150900625e-01 6.3481554625268339e+00 1.2867921815150133e+01 2.5335494191761825e+00 0 0 0
1813 2 -5.3613065793602166e-01 4.1519006022188742e+00 1.5516222478932525e+01 3.5098778983333512e+00 0 0 0
1829 1 9.0492839808737935e-01 4.2274805070941035e+00 1.5709832977642948e+01 1.1941284927921119e+00 0 0 0
1978 1 7.6371487984704123e-01 7.4586619028190766e+00 1.0027672560066835e+01 8.8237971267933846e-01 0 0 0
2104 2 -6.7092989934677694e-01 8.7531099309941851e+00 1.1510632826796217e+01 5.8680609033880593e-01 0 0 0
2239 1 9.1603134094739058e-01 1.1734334491582546e+01 1.1308048508726680e+01 3.4100813130766712e+00 0 0 0
1745 1 6.9038462886160712e-01 8.6923752108102246e+00 1.2947398409853282e+01 1.2648313439540597e+00 0 0 0
1651 2 -7.4733601742138722e-01 8.7459313067196796e+00 1.4942354913183086e+01 1.1934397856434602e+00 0 0 0
1533 2 -7.2168061596164745e-01 1.0855146980181438e+01 1.2435585763868215e+01 3.8389294012063728e+00 0 0 0
1517 1 8.2875646069876541e-01 1.1774580675715445e+01 1.4210819162999154e+01 3.8701236038618716e+00 0 0 0
2383 2 -7.2596030096944020e-01 1.1809557507524593e+01 1.1268965428300778e+01 9.5304644515100867e-01 0 0 0
1430 1 7.0341309734757773e-01 1.1926194760483806e+01 1.3390078191426587e+01 8.5856846952589461e-01 0 0 0
1369 2 -7.8306237301694792e-01 1.1980562608102728e+01 1.4829665153230117e+01 9.2832753992211314e-01 0 0 0
1552 2 -7.2152592608219324e-01 1.0637642615055732e+01 1.5760561457848375e+01 3.3970495451662361e+00 0 0 0
1662 2 -7.5611082537481578e-01 7.0175156388222977e+00 1.5899677098981677e+01 3.2004257454963549e+00 0 0 0
1713 1 9.8296603564674467e-01 7.3238793110392404e+00 1.5576248865331154e+01 1.6364337715423913e+00 0 0 0
1496 1 7.4935999241184570e-01 8.8793587311052775e+00 1.6330682685464836e+01 5.1427206737456590e+00 0 0 0
1263 2 -6.5391819784695826e-01 1.3398451302380394e+01 1.2831526814494433e+01 3.6275729806884871e+00 0 0 0
2483 2 -6.7153682988111252e-01 1.8287832819658057e+01 1.1201347687262771e+01 3.4324057395868451e-01 0 0 0
1190 1 8.1526723879461827e-01 1.8260129191080946e+01 1.4304623321226327e+01 3.4266501730517542e+00 0 0 0
1128 1 7.2471505546606707e-01 1.8423645007381566e+01 1.2854561100481567e+01 3.9036511211393071e-01 0 0 0
2419 2 -6.4738165603070319e-01 1.4663754725595822e+01 1.0447345249029830e+01 3.2263641470957338e-01 0 0 0
2554 1 8.4593231430711557e-01 1.8049301076996830e+01 1.1255374857116605e+01 3.5291437559450927e+00 0 0 0
1455 1 8.0352469555258343e-01 1.4820752171600821e+01 1.2826743974824980e+01 2.6473031307140968e+00 0 0 0
1082 2 -5.5712270749658721e-01 1.8124270225833545e+01 1.5089023508129257e+01 1.4982446700407231e-01 0 0 0
1330 2 -5.5395589270578971e-01 1.5027757712361307e+01 1.4268851406129373e+01 1.5183699403450777e+00 0 0 0
1208 2 -6.1572822605429445e-01 1.6462645919718589e+01 1.2773959742325088e+01 3.6512041009154492e+00 0 0 0
1993 1 8.6630503144402626e-01 1.0317821436653172e+00 1.6201926676848924e+01 9.1125707210964590e-01 0 0 0
116 1 7.8753343101572648e-01 5.6311725324169295e+00 1.8699901534436929e+01 9.5899058320047059e-01 0 0 0
231 2 -7.4864278349830771e-01 4.1704125573598825e+00 1.8932339638383045e+01 4.3513502417321090e+00 0 0 0
520 1 9.8027911785866018e-01 2.6213013104772251e+00 1.8954488057624431e+01 3.2498792048554788e+00 0 0 0
1878 2 -6.1575770010655395e-01 2.6068512221812705e+00 1.6511046313237994e+01 7.2548074536630869e-01 0 0 0
1631 2 -7.3018734554746179e-01 4.9071669698763074e+00 1.7585819432159308e+01 1.7238107703466112e+00 0 0 0
1756 1 8.4378295668261316e-01 5.4890922702524048e+00 1.7378938698491357e+01 3.5797384420348100e+00 0 0 0
203 1 1.0179382381426225e+00 5.2337602390737024e+00 2.0406639671759219e+01 3.9408913585005583e+00 0 0 0
293 2 -7.2631973314593457e-01 1.2025494161183654e+00 1.8806693883503215e+01 3.7903740237127233e+00 0 0 0
64 2 -8.0142542912824244e-01 5.7245257135492960e+00 2.0386035433557474e+01 1.3195362609746450e+00 0 0 0
400 2 -6.3713698081981662e-01 2.6165362187943511e+00 1.9939998455595216e+01 2.1436591753609604e+00 0 0 0
1564 1 8.9568753822996938e-01 1.0405201988957119e+01 1.5713193836955242e+01 1.5405826967576324e+00 0 0 0
103 2 -5.8134832045842078e-01 6.6598647357385179e+00 1.8986386968058589e+01 3.9147815743196714e+00 0 0 0
141 1 7.6799518475460693e-01 9.2560760355852754e+00 1.9047098318959154e+01 2.8599964136060416e+00 0 0 0
168 2 -8.4478217055696170e-01 1.0689464464457854e+01 1.8910963018518874e+01 3.7050642072699409e+00 0 0 0
1601 2 -4.9441177096145905e-01 9.2298648687210001e+00 1.7572020188713207e+01 1.1651190794457920e+00 0 0 0
1476 1 9.0794828955324536e-01 1.1663267194901433e+01 1.7322786050376624e+01 3.6814464617100455e+00 0 0 0
1318 2 -6.6380993558818568e-01 1.1691356060955323e+01 1.7259641620283912e+01 1.4643438617306614e+00 0 0 0
285 1 7.5339832585400723e-01 1.1587780065391255e+01 1.8834441442118639e+01 6.5045786707781905e-01 0 0 0
373 2 -7.7259688292577844e-01 1.1766546003192174e+01 2.0200311680232307e+01 1.4894312114788542e+00 0 0 0
193 1 8.5287732457302490e-01 1.1904034732113608e+01 2.0207440510677817e+01 3.2089925325968869e+00 0 0 0
2437 2 -7.0641049049750360e-01 1.3864030813882708e+01 3.0091696995791706e-01 2.6546625848510281e+01 0 0 0
1342 2 -6.0716169980125800e-01 1.3195482193011649e+01 1.5895904843522846e+01 3.4789329167544292e+00 0 0 0
1228 2 -6.1712781709795861e-01 1.6996856492138789e+01 1.5851457749515211e+01 3.4577543920371339e+00 0 0 0
1245 1 8.7455208083195435e-01 1.6560248641806087e+01 1.6052964011247163e+01 1.7324132335440621e+00 0 0 0
1404 1 8.7600145998924139e-01 1.3442841875336768e+01 1.6053675184881161e+01 1.4722306051622200e+00 0 0 0
703 1 7.0265980624818092e-01 1.7688548024326412e+01 1.8759424959852193e+01 7.6411718446679122e-01 0 0 0
1028 2 -7.5515341216889220e-01 1.7804085616228946e+01 1.7314183100072309e+01 1.5591442495486409e+00 0 0 0
266 1 7.3467265855797992e-01 1.5011609814786153e+01 1.8973647520560991e+01 3.1832473818859790e+00 0 0 0
511 2 -7.2542940738495143e-01 1.3567025794635517e+01 1.8821801461306723e+01 3.9914245624041365e+00 0 0 0
579 2 -7.7829784423646864e-01 1.6743889635859144e+01 1.8927472468520339e+01 3.6445091078435983e+00 0 0 0
612 1 1.0322739526694635e+00 1.7363015841810057e+01 2.0585334123408266e+01 3.3196914686475165e+00 0 0 0
1159 1 9.4068513154004796e-01 1.8130260100016056e+01 1.7767551295874718e+01 3.6111197147687188e+00 0 0 0
1285 2 -6.1982756746865497e-01 1.4902074028327769e+01 1.6961457464488568e+01 1.1455960648417569e+00 0 0 0
780 2 -7.8402778731444356e-01 1.7518299095024954e+01 2.0340456963825190e+01 1.6303623706904224e+00 0 0 0
295 1 7.0776764450494767e-01 2.7894013185456541e+00 4.0284078677398387e+00 4.0178988766758517e+00 0 0 0
1275 2 -7.0077314634064458e-01 6.3270606587928597e+00 1.9795388475703524e+00 5.1003278973704429e+00 0 0 0
1513 1 9.2956901928298530e-01 4.6470235182096902e+00 7.3547897936406115e-01 5.3871915530520154e+00 0 0 0
1479 1 9.1563061913284804e-01 1.0048513845607652e+00 6.6050648259591138e-01 5.0167973506108234e+00 0 0 0
1310 2 -5.8604695461475165e-01 2.9865745785971192e+00 1.8816890150865744e+00 5.1690069037722193e+00 0 0 0
526 1 6.6874420801311418e-01 5.7806551978619982e+00 8.3359794577343349e-01 8.3239704665302661e+00 0 0 0
949 2 -6.5948886789423744e-01 3.8413977196828948e+00 3.2567408307211592e+00 7.6584430186236441e+00 0 0 0
992 2 -7.0325711894912590e-01 1.4478872427128338e+00 3.7302669318089796e+00 8.0437985329709409e+00 0 0 0
1382 2 -7.0625249324404604e-01 1.2953371021939559e+00 6.6097471600471858e-01 7.0839310748066691e+00 0 0 0
1140 1 9.4467969804509522e-01 2.7529204404136296e+00 2.1977353589358106e+00 7.1893305444677136e+00 0 0 0
1339 2 -7.3070250338241094e-01 4.1470491028723648e+00 8.7935123539723603e-01 7.1102735697903112e+00 0 0 0
1064 2 -5.6706375429191258e-01 2.6893516198954681e+00 2.3575921207376438e+00 1.0087851805617456e+01 0 0 0
916 2 -6.3989242741923014e-01 2.9106667330286813e+00 5.0151436559303653e+00 9.5717805210629834e+00 0 0 0
1445 1 6.5608507872545441e-01 6.0425234113884061e+00 3.6067960437827513e+00 6.2002619421897283e+00 0 0 0
856 1 9.1252554260593421e-01 4.1537359567448515e+00 3.5401759464251903e+00 9.6925589841420425e+00 0 0 0
1165 1 9.4233670303633565e-01 1.0525477206571183e+00 3.5570010367015179e+00 9.6583203663541504e+00 0 0 0
2531 1 9.0144315805188324e-01 1.3569316123342197e+01 1.8013020510903431e+01 3.8516626863149895e+01 0 0 0
593 2 -6.0699055172360172e-01 1.2172936416023880e+01 1.8410820364437173e+00 4.9858195980788604e+00 0 0 0
814 1 8.2857299018535790e-01 1.0404936155607958e+01 6.1363878710708442e-01 5.5664802630412202e+00 0 0 0
618 2 -6.9267278167086599e-01 8.9930511798877397e+00 2.2222323835378521e+00 5.2161517186275699e+00 0 0 0
748 1 6.4161309799803745e-01 1.2205510632065288e+01 3.5430562632193232e+00 6.6146460369589697e+00 0 0 0
317 2 -6.8800781239051845e-01 1.0248980259977165e+01 3.6049701072074019e+00 7.7208473918281859e+00 0 0 0
348 2 -5.6475593917997713e-01 7.6094477322858767e+00 3.5698739286738292e+00 7.9343802406223434e+00 0 0 0
459 1 9.1122757151680456e-01 8.9705202149415530e+00 2.0765965967279558e+00 7.5974471151485634e+00 0 0 0
649 2 -6.6974099874859894e-01 1.0151400079286368e+01 3.6162804519426706e-01 7.5329800030702243e+00 0 0 0
687 2 -7.7294034880212203e-01 7.8165754790522861e+00 8.3281284280431012e-01 7.3081509526441701e+00 0 0 0
782 1 9.6293335090668564e-01 7.5902296705187275e+00 8.0367344153756104e-01 5.2529312346687433e+00 0 0 0
247 1 8.9724543554797143e-01 9.1374271755975283e+00 5.1965111248100371e+00 7.7252376068675748e+00 0 0 0
434 2 -6.8211820898400588e-01 5.8469521979745878e+00 2.2287825867184163e+00 1.0097301297015925e+01 0 0 0
550 2 -7.3174226574972345e-01 1.2248501313954153e+01 2.0957931162453161e+01 1.0520951148445835e+01 0 0 0
401 2 -6.6325043609683165e-01 8.5723178759542229e+00 2.0506274482731777e+00 9.6494059286170053e+00 0 0 0
494 1 9.4235247750055018e-01 7.3964463072416535e+00 3.3485455714394781e+00 1.0028777413896496e+01 0 0 0
943 1 7.1289579078267085e-01 1.5257224788083818e+01 3.9479961159846062e+00 3.9980251467828474e+00 0 0 0
28 2 -6.0501192689210737e-01 1.8404183540202681e+01 2.1390314105785557e+00 5.2875573210860312e+00 0 0 0
138 1 6.8432873906210478e-01 1.7865758320111269e+01 3.8633157909704026e+00 6.5438610679728750e+00 0 0 0
44 2 -7.0835620012585609e-01 1.5587445805797486e+01 1.6461861364074286e+00 5.4307122485298942e+00 0 0 0
167 1 9.0992719114860010e-01 1.3864435138114372e+01 5.0819080010593598e-01 5.2848483407782254e+00 0 0 0
191 1 9.4548907272736504e-01 1.6583429479235562e+01 6.1190974042968871e-01 5.1381510879047525e+00 0 0 0
59 2 -6.8695453710140464e-01 1.6807878336905944e+01 4.5392739405541183e-01 7.3105787273336285e+00 0 0 0
88 2 -7.9589982165862505e-01 1.4059586520926244e+01 5.4682611126983793e-01 7.2631248085762268e+00 0 0 0
2485 1 7.7898756590706730e-01 1.8439644565306388e+01 6.5113278359676041e-01 8.0486857945797130e+00 0 0 0
338 1 8.3923665290531280e-01 1.5109220430848014e+01 1.9384448809080821e+00 7.5720715637556637e+00 0 0 0
989 2 -7.4922461639288751e-01 1.3705115319273283e+01 3.4846443658082005e+00 8.0457280195548648e+00 0 0 0
1118 2 -7.6642187948741258e-01 1.6236685693411843e+01 3.7772922165260221e+00 7.8370036161214580e+00 0 0 0
699 2 -6.6397699056100501e-01 1.5626032404544095e+01 2.1593193337684395e+00 9.9999037214528812e+00 0 0 0
1234 2 -7.4398509267942625e-01 1.4808111990204884e+01 4.8735056647601160e+00 1.0031664429281500e+01 0 0 0
1906 1 7.6989280344335775e-01 2.6770793884577730e+00 9.8349818418383776e+00 4.6935210057827623e+00 0 0 0
930 2 -5.9215507540227796e-01 2.3787587150603535e+00 5.5331221426828643e+00 5.7940597623096091e+00 0 0 0
881 1 8.9494014137806910e-01 2.4525044456333593e+00 5.2551374762251255e+00 7.5492244247553968e+00 0 0 0
757 1 9.0414696745612599e-01 4.7249571730093782e+00 7.0223069783687873e+00 4.9526848187418100e+00 0 0 0
818 1 9.5864493676685536e-01 1.0804320736602921e+00 7.2041124219273680e+00 5.3213293204414773e+00 0 0 0
1195 2 -7.0019065223868926e-01 2.8365400631967015e+00 8.5326125101099919e+00 5.4246981441984117e+00 0 0 0
1236 2 -7.3752361733600680e-01 6.2024180451766622e+00 5.5482807966003609e+00 4.7544506857882558e+00 0 0 0
892 1 6.8200787973859334e-01 6.4862081314375510e+00 9.3532749421442993e+00 6.3668798416761385e+00 0 0 0
2047 2 -6.6979276485009520e-01 3.6474585850473229e+00 9.5615174579183471e+00 8.1076826261575849e+00 0 0 0
1932 2 -5.9189769284441274e-01 7.7524647152778892e-01 1.0133031871770509e+01 7.9341777910654319e+00 0 0 0
1653 1 9.8148975016362749e-01 3.2104547171671123e+00 7.8224948845896822e+00 7.5009860238908157e+00 0 0 0
1019 2 -6.8542400534872350e-01 1.9106655747210501e+00 7.1851224084019210e+00 7.6512242403755719e+00 0 0 0
1092 2 -7.5605246366722600e-01 4.3699090178220406e+00 6.7311779308472115e+00 7.0935024694670075e+00 0 0 0
1757 1 7.6133839465460451e-01 5.7383072790429264e+00 6.1998038115158520e+00 8.2459603065741511e+00 0 0 0
1277 2 -7.0788586445635482e-01 6.5353872083617279e+00 7.9680202801905446e+00 4.9613805457920312e+00 0 0 0
275 2 -7.6327729297430447e-01 8.6918129320023780e+00 5.0629714511468205e+00 9.8263006586762351e+00 0 0 0
557 2 -7.0578417202670196e-01 1.2218182958433344e+01 5.9671570490598853e+00 5.4381044100607907e+00 0 0 0
2576 2 -6.6970804309387288e-01 8.8176426295592236e+00 5.3928424767090304e+00 5.7807421192351365e+00 0 0 0
2075 2 -5.3828041429909179e-01 1.1943742672041145e+01 8.1279701961943918e+00 4.8369553653480173e+00 0 0 0
2440 1 9.8780513289955763e-01 7.7668807337007602e+00 6.6573033201237850e+00 5.2450267119702110e+00 0 0 0
2372 1 9.1942749903415155e-01 1.0663887860036773e+01 6.8790443100012464e+00 5.4885727611417403e+00 0 0 0
1 1 6.8746888209463575e-01 1.2104251762677785e+01 6.8847860007291803e+00 8.6518624495050371e+00 0 0 0
2505 2 -6.3240078408094802e-01 7.4330941900035716e+00 6.6779791272791105e+00 7.4885368338304197e+00 0 0 0
2398 2 -7.1236735385844419e-01 1.0451114123582096e+01 6.7067539784888224e+00 7.7510719070741807e+00 0 0 0
1644 1 7.7085937185351650e-01 8.9698268599939581e+00 8.1092483556332660e+00 8.1345497264059095e+00 0 0 0
1306 2 -6.3926707450321452e-01 7.8751815973654082e+00 9.7883342552958528e+00 8.0079429308329839e+00 0 0 0
1224 2 -7.9817732628053450e-01 1.0459026202673533e+01 9.8608582536663718e+00 8.5211147341700109e+00 0 0 0
2523 1 7.6148152178858663e-01 1.1678967590327870e+01 9.9672383422894946e+00 7.4675403116451182e+00 0 0 0
1482 2 -6.2022201359675289e-01 8.8095541652173530e+00 8.4944121895700366e+00 1.0060115649239860e+01 0 0 0
199 2 -6.1236709430950509e-01 1.1774828288280373e+01 8.0543358370001172e+00 1.1255897196268148e+01 0 0 0
545 2 -6.6403745226394850e-01 1.5029827225477934e+01 5.5495668929863076e+00 5.3117200018123318e+00 0 0 0
2536 1 7.6246481290858914e-01 1.4609019368382731e+01 9.7180248013299639e+00 4.7636513796387305e+00 0 0 0
13 2 -6.6180071216426284e-01 1.7954508826559294e+01 5.7899102015995290e+00 5.0569599525340001e+00 0 0 0
1323 1 9.0155346493674560e-01 1.5053608729174350e+01 4.8772318177314204e+00 7.7114665427261606e+00 0 0 0
648 1 8.1196402079571994e-01 1.8342176924753684e+01 9.8607019533226161e+00 6.2529462708267367e+00 0 0 0
898 1 7.7617429587891462e-01 1.7758110331370432e+01 6.7048249117928851e+00 9.5942180593961695e+00 0 0 0
175 2 -7.2268209768259550e-01 1.8230688524942959e+01 8.3691440077709185e+00 5.4151472562616565e+00 0 0 0
294 2 -7.1245264683873766e-01 1.4870225392798627e+01 8.1728958327723582e+00 5.6829138842156919e+00 0 0 0
729 1 9.9508138409142122e-01 1.3511362015051095e+01 6.6058609577396306e+00 5.7057909964817339e+00 0 0 0
833 1 8.5340229926450228e-01 1.6494970105550738e+01 6.9935178759071022e+00 5.0466667861427537e+00 0 0 0
154 1 8.9280275300737899e-01 1.5049240691353974e+01 8.1736230633679625e+00 7.6478522336502861e+00 0 0 0
387 2 -5.5900580787083287e-01 1.6257556890168971e+01 6.6529825927693134e+00 7.8659422073818144e+00 0 0 0
426 2 -5.7850820583108509e-01 1.3694232768937644e+01 9.9203397528551527e+00 7.7101930382982777e+00 0 0 0
464 2 -6.8639962988767889e-01 1.3787063079645890e+01 6.5924179854885381e+00 7.6782652716661435e+00 0 0 0
469 2 -6.6567884062385585e-01 1.5986448402581512e+01 9.8064761334695074e+00 8.6529244136185834e+00 0 0 0
2020 2 -6.6426986356302842e-01 2.8157847483815055e+00 1.4198417225328461e+01 6.1783046020543386e+00 0 0 0
1902 2 -6.4358114049613779e-01 6.0570786355508490e+00 1.3888845470047317e+01 5.3364149784148180e+00 0 0 0
1355 2 -6.8349168622910705e-01 6.2121986711243373e+00 1.1398257446506927e+01 5.2894692133644936e+00 0 0 0
2378 1 9.4162602906254889e-01 4.2897149191894917e+00 1.2571786222784503e+01 5.8045044833936039e+00 0 0 0
2298 1 8.4573000417819688e-01 9.9567269868433728e-01 1.2946159165335954e+01 6.2171420379280526e+00 0 0 0
2180 2 -7.0747913520875594e-01 3.1076837419083496e+00 1.1478464860209721e+01 6.2354241181629408e+00 0 0 0
2215 1 9.1440694303418846e-01 2.2895525907057612e+00 1.0958524910924025e+01 7.8047265958933600e+00 0 0 0
2111 2 -6.2192775063512584e-01 1.2001157570196010e+00 1.2906676898088357e+01 7.8441777717622507e+00 0 0 0
2086 2 -6.9133404497763296e-01 4.5299591341222287e+00 1.2971651421854705e+01 8.0158494325110432e+00 0 0 0
1715 1 8.4294840993673192e-01 2.9566122639305221e+00 1.4421132089551339e+01 8.2646980899552158e+00 0 0 0
452 1 8.4537201185218236e-01 5.6386104455898653e+00 1.2709363081698326e+01 8.8960243405396273e+00 0 0 0
1488 2 -7.4052723855479041e-01 1.0511934579739592e+00 1.5743424098225663e+01 8.5857131708175078e+00 0 0 0
654 2 -6.2144355636713211e-01 1.2055301442503398e+01 1.4196030041362310e+01 5.7208542981390202e+00 0 0 0
1049 1 9.6936559400858768e-01 1.0547814050011482e+01 1.2640879323705423e+01 5.9969241077322524e+00 0 0 0
743 2 -6.4087945932670409e-01 8.7966377045376731e+00 1.4242577542324391e+01 6.2286848188880235e+00 0 0 0
886 2 -5.7549243232582470e-01 8.8445677220908792e+00 1.1574382161821243e+01 5.9902718427119979e+00 0 0 0
1018 1 9.3669032262219076e-01 7.4064071451124525e+00 1.2868455182998217e+01 5.9929034128548349e+00 0 0 0
61 1 9.1720506447052852e-01 9.0055308536187528e+00 1.4376850096855037e+01 8.0609897651967852e+00 0 0 0
785 2 -7.2908844915734905e-01 1.0335837067367104e+01 1.2836504519163347e+01 7.8501054393084981e+00 0 0 0
829 2 -6.2118973126076582e-01 7.6504857745085433e+00 1.2660489277650200e+01 7.8825186081189118e+00 0 0 0
1033 1 9.3966800288486141e-01 9.1998454698616321e+00 1.1371588190198869e+01 8.1783505787705124e+00 0 0 0
1274 1 7.0928000894591647e-01 1.1721816199329282e+01 1.3107073537051539e+01 9.3359389087558515e+00 0 0 0
1879 2 -6.1754726979960894e-01 1.1800696117440896e+01 1.1724597212924161e+01 5.9116392817199799e+00 0 0 0
574 2 -6.6518975953755966e-01 1.0564692573123049e+01 1.6323225476270434e+01 8.2665737193388651e+00 0 0 0
944 1 7.3376986805471023e-01 1.1826021851223546e+01 1.6410429632986350e+01 6.8454643890938085e+00 0 0 0
109 2 -7.7549223920833876e-01 1.8361704629097485e+01 1.1321189682656740e+01 5.1924416209765738e+00 0 0 0
1210 2 -6.6224002047367736e-01 1.8345407034280704e+01 1.3909327350236653e+01 5.4436643939429050e+00 0 0 0
1003 2 -6.0417573355345666e-01 1.4659525254782977e+01 1.1404266847028998e+01 5.9459187958376676e+00 0 0 0
1997 1 8.0320076629884074e-01 1.7930425142408900e+01 1.2563682966362757e+01 1.0350914869294449e+01 0 0 0
875 1 7.9705827741816715e-01 1.6701146978519589e+01 1.2677919113597849e+01 5.8109402873412206e+00 0 0 0
913 1 9.8045555529377171e-01 1.3655353100898758e+01 1.2916149003356734e+01 6.0742899624573576e+00 0 0 0
1169 2 -6.5304113070504743e-01 1.4945215595438139e+01 1.4272951176626830e+01 6.0195756472864179e+00 0 0 0
509 1 9.0402693003079637e-01 1.4732055122923706e+01 1.1364247585694306e+01 8.2882185450100021e+00 0 0 0
1119 2 -6.9304278399874408e-01 1.3662373330533056e+01 1.2772719692131108e+01 7.9104645491311354e+00 0 0 0
1138 2 -5.8071894408165381e-01 1.6322196898962876e+01 1.2888133379114658e+01 7.7997302561380470e+00 0 0 0
1327 1 8.8268680691628920e-01 1.4962593258034369e+01 1.4401652884567156e+01 8.3084066085776875e+00 0 0 0
1770 1 7.7343070675572234e-01 2.5923526403012902e+00 1.5702795604998105e+01 5.3946191175932512e+00 0 0 0
1413 2 -7.8327936145487798e-01 4.2065519967778497e+00 1.5736499384910807e+01 8.3064961679449585e+00 0 0 0
2269 1 7.7708308906418699e-01 5.4029518143040782e+00 1.6011065386549195e+01 7.4137505968645554e+00 0 0 0
1940 1 9.3923534184450341e-01 1.0364304687292472e+00 1.8561950998860116e+01 5.8771529958503717e+00 0 0 0
1863 2 -6.4979212578377388e-01 5.5270352037998993e+00 1.7506167359947128e+01 5.8217133751132248e+00 0 0 0