LAMMPS data file via write_data, version 7 Aug 2019, timestep = 10000

2577 atoms
2 atom types

0.0000000000000000e+00 1.8560400000000001e+01 xlo xhi
0.0000000000000000e+00 4.2399999999999999e+01 ylo yhi
-2.2645578248691161e+00 4.3017346237040663e+01 zlo zhi

Masses

1 55.847
2 15.9994

Atoms # charge

124 2 -6.6667250231692610e-01 1.7686981052719568e+00 3.4669144249711432e+00 4.6254245640885250e-01 0 0 0
223 1 9.9351150071111216e-01 3.4749705547066170e+00 3.6004037078807829e+00 5.7323489404436090e-01 0 0 0
259 2 -5.2481588559998382e-01 4.4500443806063439e+00 1.4240945581005240e+00 2.6147948181710849e+00 0 0 0
358 1 9.3486576715219694e-01 5.0206827264459557e+00 1.1948825662803020e+00 6.4927958316570011e-01 0 0 0
412 2 -7.4881646011202152e-01 4.8317607928087911e+00 2.9357917449334456e+00 1.5225412052731008e-01 0 0 0
1098 2 -1.0336187872812750e+00 2.3457259765314524e+00 2.0670038253643305e+01 1.1984539271546106e+01 1 0 0
1254 2 -8.4885502897621401e-01 8.1578535908965470e+00 2.1103727079156062e+01 2.1456477038737976e+01 0 0 0
376 1 9.1061709897733711e-01 6.3277189528426518e+00 3.7953190807696191e+00 2.3839556860237379e-01 0 0 0
448 2 -7.5796830856376551e-01 7.5105279778676097e+00 2.7960185071229295e+00 1.0015848890799512e+00 0 0 0
547 1 8.4532381095286235e-01 9.2059236942046052e+00 3.7214440340765731e+00 1.4524210801126822e+00 0 0 0
736 2 -6.0906565099468457e-01 1.0912738958565292e+01 3.1372791315775101e+00 1.0368452072984595e+00 0 0 0
682 1 7.6296903976126174e-01 1.0947756435939601e+01 7.2300258508077486e-01 9.5987589549295771e-01 0 0 0
2385 2 -6.0664457079415635e-01 9.6078521665762473e+00 2.3559942849703275e-01 -3.3658431796936428e-01 0 1 0
700 1 8.5047762028155049e-01 1.2840394541175995e+01 4.1514301817867167e+00 1.5373625149728074e+00 0 0 0
52 1 9.4659670271614338e-01 5.1146636625355224e-01 4.4473631827659128e+00 1.3893170547922904e+00 0 0 0
205 2 -6.5351419669278588e-01 1.8448994555257254e+01 5.0972576073681031e-01 5.9380508098575524e-01 -1 0 0
772 2 -5.8207252277817456e-01 1.4611176947692528e+01 3.3139432430055167e+00 1.0723742549835356e+00 0 0 0
871 1 9.4746823582495165e-01 1.5871724067114844e+01 4.6772748894760845e+00 1.6664384065106519e+00 0 0 0
1006 1 7.3566173787881906e-01 1.7734166047951753e+01 2.2710859295578789e+00 1.0113822683350969e-01 0 0 0
1060 2 -7.6069197865035465e-01 1.7516210511440402e+01 3.4731266963350902e+00 9.9174264531595702e-01 0 0 0
466 2 -7.3947672945320342e-01 3.5198281225941228e+00 5.4703603213212766e+00 -4.4963962014981418e-01 0 0 0
1960 1 9.8711577474774270e-01 4.9588297447079670e+00 6.3182133486612591e+00 1.1747018213832923e-01 0 0 0
1735 2 -7.0191904950849016e-01 5.1694416665218901e+00 7.8914810471145538e+00 -5.3379236253466789e-01 0 0 0
1627 1 8.0888526701691243e-01 2.2247821382870212e+00 6.1839858750975720e+00 -4.8522227076834701e-01 0 0 0
502 2 -5.4132135504234580e-01 5.9684277054354178e+00 5.1175994440167525e+00 -8.0883529411204969e-01 0 0 0
1834 1 9.9684099562063921e-01 4.8866859239909530e+00 9.3450938114734967e+00 -2.7186425886022131e-01 0 0 0
2068 2 -6.1341194137140564e-01 6.1298161945429559e+00 1.0362816694277177e+01 2.8962347719895104e-01 0 0 0
1789 2 -4.6483240535210563e-01 1.2766219205043998e+00 9.7711917791067542e+00 5.9953255835260344e-01 0 0 0
1870 2 -5.8879749032988282e-01 4.0975751109168161e+00 7.2960760039169026e+00 2.4993134199295763e+00 0 0 0
1663 1 1.0782684220089955e+00 1.7996405603395868e+01 1.0346940867939967e+01 6.6056498459358493e-01 -1 0 0
1906 1 9.4438540823235484e-01 2.5480033917262306e+00 1.1098500482709948e+01 8.0041707482216196e-01 0 0 0
2032 2 -6.7618994977285751e-01 6.7072164147776059e+00 1.0225738357004962e+01 3.2228638171724566e+00 0 0 0
1978 1 1.0065216390281864e+00 7.0976033238244316e+00 1.0249353574973560e+01 1.5638837404273866e+00 0 0 0
2329 2 -7.8005649273657696e-01 1.0482048353804430e+01 8.7308362097526011e+00 2.6582854582642779e+00 0 0 0
2050 2 -6.1402306788394434e-01 8.5624489029488444e+00 9.4089320020268232e+00 1.1160008835078086e+00 0 0 0
1942 1 7.0793165704934846e-01 7.7647501562965058e+00 6.3889258759980931e+00 2.4293667783453006e+00 0 0 0
790 2 -8.1755543813318488e-01 9.5277747264175510e+00 5.2839028730411641e+00 1.6886384760297573e+00 0 0 0
2275 1 7.5449492863993450e-01 1.0681373455135226e+01 6.2403787055313336e+00 6.2007110128333531e-01 0 0 0
2149 1 1.1536676889074098e+00 9.9918831100964702e+00 9.9752882392713076e+00 2.0652158728577961e+00 0 0 0
826 2 -6.5453639542654429e-01 1.2182661394032470e+01 6.1371668362468226e+00 8.9843912605847553e-01 0 0 0
2500 2 -5.5573650437048250e-01 1.4280763399418296e+01 5.2290604677472992e+00 1.9892211860008191e+00 0 0 0
178 2 -6.8686104185474861e-01 1.0762724964162496e+00 6.2172802634160664e+00 7.9884755252546502e-01 0 0 0
2293 1 8.0391460377036172e-01 1.2443539509247330e+01 1.0066960089325791e+01 4.0786336995895989e-01 0 0 0
1114 2 -5.5184717348494816e-01 1.6648574644291493e+01 5.7511810734687376e+00 4.6064020608939943e-01 0 0 0
2446 2 -5.8097120332348218e-01 1.2746877803183054e+01 8.3720078589675975e+00 -2.0866739193553885e-01 0 0 0
2569 1 9.5019735512976611e-01 1.7876775365064194e+01 7.2591254314559279e+00 8.9282761325770299e-01 0 0 0
2530 2 -5.5408738084399689e-01 1.7751587269322791e+01 8.8249815657722070e+00 4.8828273231675719e-02 0 0 0
2365 2 -5.5087807148716061e-01 1.5015458867858545e+01 8.9616550673456867e+00 4.2006496910382318e-01 0 0 0
2257 1 9.0746058527165996e-01 1.3679180846345435e+01 7.5390208935320278e+00 9.0642836670503579e-01 0 0 0
2464 1 9.8366177536227561e-01 1.5184443349520979e+01 1.0087748810752498e+01 1.5289730851648335e+00 0 0 0
2014 2 -5.9261180803404578e-01 3.4156769079421063e+00 1.0380933530086343e+01 -2.1381244144266098e-01 0 0 0
1729 1 7.6545548513662243e-01 5.2389970576535498e+00 1.3541010375010679e+01 1.2777173468842600e+00 0 0 0
1678 2 -5.9409364542647558e-01 3.7137837915963705e+00 1.3014994100364740e+01 2.4256708377367203e-01 0 0 0
1829 1 8.7365957205813227e-01 2.2962050491987185e+00 1.4184880387227567e+01 6.3755973265865762e-01 0 0 0
1813 2 -1.0054426258741809e+00 2.7172592389410992e+00 1.5010056226822764e+01 2.3988431198576445e+00 0 0 0
1914 2 -7.0096912678517453e-01 1.0068079968175037e+00 1.4789951064506218e+01 2.0776579690731517e-01 0 0 0
1631 2 -7.0589177370618861e-01 5.5836462231746395e+00 1.5364404743547929e+01 1.2213642316177562e+00 0 0 0
2180 2 -6.2716174038455985e-01 1.7337988026366922e+00 1.2510991868001192e+01 2.1842255491354896e+00 0 0 0
2167 2 -8.2319083455878694e-01 9.8436025477485778e+00 1.1067712384911374e+01 2.8936919851770817e+00 0 0 0
2383 2 -8.1564987020635127e-01 1.1086606975859446e+01 1.0668319039166128e+01 6.0058988267547264e-01 0 0 0
2104 2 -6.6764264837072684e-01 7.3736642925685310e+00 1.2068819851357265e+01 1.4595554882082391e+00 0 0 0
1651 2 -6.2992444827847449e-01 8.3041583235855363e+00 1.5510756369074867e+01 1.1451549875723415e+00 0 0 0
1430 1 7.6810122992942220e-01 1.0799487340266115e+01 1.2464947417188075e+01 2.2484744821078947e-01 0 0 0
1517 1 9.7335605214117371e-01 1.0834320027730897e+01 1.2491081377204885e+01 3.0391770746308300e+00 0 0 0
1369 2 -7.6040694921739971e-01 1.0978739415561067e+01 1.3422406220048726e+01 1.2683969970548781e+00 0 0 0
1564 1 9.3622876909902342e-01 9.5713662230594156e+00 1.4896928605639847e+01 1.8985505877636637e+00 0 0 0
1533 2 -8.1825709772802346e-01 9.1663150955154631e+00 1.3455635983252817e+01 2.9341223917371750e+00 0 0 0
2419 2 -7.8763103443251870e-01 1.4200582517977574e+01 1.1182945638100316e+01 1.1085453487798294e+00 0 0 0
1404 1 8.8451774788165849e-01 1.2562135015302536e+01 1.5205956418402481e+01 2.3412081223256855e+00 0 0 0
2483 2 -4.7493259109203279e-01 1.7903383971271129e+01 1.1734961213327150e+01 -7.0331435344368454e-01 0 0 0
1455 1 8.6458666006377072e-01 1.3420716823584000e+01 1.2415525211695718e+01 2.0534096719043977e+00 0 0 0
1082 2 -7.8083424805340418e-01 1.6934473807461355e+01 1.1291578930251401e+01 1.1608919019962698e+00 0 0 0
1128 1 8.1332832606340788e-01 1.6571841881279319e+01 1.2627928349575983e+01 2.3291475179968341e-01 0 0 0
1330 2 -5.5403423779877847e-01 1.3706833443363816e+01 1.4044236440449417e+01 1.1754421275597733e+00 0 0 0
1245 1 8.7252048239319946e-01 1.5504838342302603e+01 1.5024145063225664e+01 2.1834756997813778e+00 0 0 0
1993 1 8.9766501448674940e-01 1.8272485965016422e+01 1.5275697425869954e+01 1.1053380680002967e+00 -1 0 0
1028 2 -6.7418728653734405e-01 1.6637840548229224e+01 1.4733072605114071e+01 8.1934614961749297e-01 0 0 0
413 2 -8.2001270671702664e-01 1.7991003688702623e+01 4.2788109474135483e-01 2.8352509476384391e+01 0 0 0
116 1 8.6288478067255014e-01 3.8821964171939016e+00 1.6275683243012402e+01 1.6760697962508007e+00 0 0 0
231 2 -7.8908576509189921e-01 2.1674874130915560e+00 1.7759511332800322e+01 2.3244257818605925e+00 0 0 0
520 1 9.4713115897583888e-01 1.1266120412647138e+00 1.7769554602010370e+01 8.7904989479733175e-01 0 0 0
1878 2 -6.6667610292346069e-01 1.8413102758906245e+01 1.7092398603406618e+01 8.5937833753074400e-01 -1 0 0
780 2 -8.0743084420591960e-01 5.0609299691333409e-01 1.9829568568377464e+01 9.8984136839455794e-01 1 0 0
253 2 -5.8125643018956685e-01 3.2433462179148842e+00 1.7105721633203611e+01 1.0303572950380456e-01 0 0 0
203 1 9.0666982872648594e-01 6.4204675628352748e+00 1.9362372989577224e+01 1.8192398132879413e+00 0 0 0
64 2 -5.3113351502169115e-01 5.5392256619441262e+00 1.8925826262100664e+01 -1.1454714187556732e+00 0 0 0
718 2 -8.2089627626353023e-01 1.0509945963435065e+01 2.0318949031960770e+01 2.0024851698308577e+01 0 0 0
272 1 8.8175332321663769e-01 4.0022465462290135e+00 1.8770498776109829e+01 -2.9694770588822844e-01 0 0 0
43 2 -8.1702959774857642e-01 4.2121289141325589e+00 1.9527406916143686e+01 1.6820752200438804e+00 0 0 0
1713 1 9.4826074595837584e-01 6.8936559757197475e+00 1.6137610829740492e+01 1.9772093896499472e+00 0 0 0
141 1 9.3657780393769041e-01 8.7562401793597626e+00 1.8319732797900524e+01 2.9211109848607300e+00 0 0 0
285 1 8.6639855781468711e-01 1.1499172666681813e+01 1.8040315659487483e+01 1.8972405251949926e+00 0 0 0
1601 2 -8.0700864525301874e-01 7.4117387417742995e+00 1.8165454945119762e+01 2.2397112447810814e+00 0 0 0
1318 2 -5.5509793744502434e-01 1.1237503526714782e+01 1.6036952743080917e+01 1.2367079608696399e+00 0 0 0
15 2 -5.9523840508982173e-01 1.0189080111389387e+01 1.9344578489425619e+01 2.7678449368756657e+00 0 0 0
373 2 -5.4483415901596099e-01 1.1572672735968231e+01 1.9087508528824465e+01 5.9165563120897768e-01 0 0 0
137 1 1.0303793986053955e+00 6.0456261289559841e+00 2.0834025950349051e+01 -7.0835049261601035e-01 0 0 0
18 2 -6.6587748922520473e-01 6.8657368595000872e+00 2.0422070304274950e+01 4.9341003367966235e-01 0 0 0
1925 2 -9.3828223432693070e-01 1.8453771360433258e+01 1.6132157195001312e+01 3.1304640666000227e+00 -1 0 0
703 1 8.4683327956928778e-01 1.7247696860474797e+01 2.0232021472391136e+01 1.2812663743563630e+00 0 0 0
1285 2 -7.0341949475573295e-01 1.4186338881542268e+01 1.6376313067569605e+01 2.3865223261765531e+00 0 0 0
1434 2 -7.2512606033954785e-01 7.0302857541264119e-01 7.1701475534367376e-01 1.8611574237614157e+01 1 0 0
318 1 8.5970732081432366e-01 1.2099819847347838e+01 2.0888680709055834e+01 9.3600102599562612e-02 0 0 0
1810 1 9.4127526165693931e-01 1.3233684795642175e+00 7.2723253240491459e-01 1.4210115080263423e+01 0 0 0
241 2 -8.3961427885992945e-01 3.3342695708144428e+00 3.9300627095894867e+00 2.4536703618066582e+00 0 0 0
430 2 -6.7031572541496232e-01 5.7790310926770445e+00 5.4147740035497955e+00 1.5261365409605276e+00 0 0 0
106 2 -9.6101750330095781e-01 4.7081959551142344e-01 4.6342986326821700e+00 2.9579923049565191e+00 0 0 0
313 1 8.5301795063658370e-01 4.4350065827225604e+00 4.9912955604594211e+00 2.9470051145691007e+00 0 0 0
277 1 1.0493751656735333e+00 2.8301433197313002e+00 2.4763352614029408e+00 3.2491787536553920e+00 0 0 0
295 1 8.0047512054304226e-01 1.5451010149110787e+00 4.8981987042462132e+00 3.8761658301816371e+00 0 0 0
1275 2 -7.7235051202300364e-01 3.8531463820731338e+00 2.7150708609070082e+00 4.7514655679584639e+00 0 0 0
1445 1 9.4350166865806262e-01 4.4694892107623216e+00 3.7222344908884701e+00 5.6646312783672483e+00 0 0 0
949 2 -8.9028882850250524e-01 4.0376954509153826e+00 4.1108466370947703e+00 7.2710138792211803e+00 0 0 0
992 2 -6.3336611743488413e-01 1.1645841958795884e+00 4.3847469902698721e+00 8.2935137011069990e+00 0 0 0
881 1 9.6900272659829534e-01 3.0806075496857819e+00 5.2179705666094893e+00 8.0943444237361213e+00 0 0 0
1339 2 -8.8933615593187310e-01 4.1483077758841942e+00 1.0313837558496428e+00 7.3627812056476261e+00 0 0 0
1479 1 8.1814153361275843e-01 1.6076981645973139e+00 5.1019835599956841e-02 4.7842153900470912e+00 0 0 0
1310 2 -7.9988367867098287e-01 2.0252748885357046e+00 1.3999112120587762e+00 3.2204744836071737e+00 0 0 0
331 1 6.7434733196218533e-01 7.8569468907367055e+00 1.4721254004952171e+00 -2.2474944682236903e-01 0 0 0
1513 1 9.6623154375274722e-01 4.3177004579592237e+00 9.5228030131997943e-01 5.6464292664402889e+00 0 0 0
565 2 -7.8275056715451230e-01 9.9757363584240579e+00 3.0291343973631482e+00 3.2579111977223905e+00 0 0 0
583 2 -8.3616240241267692e-01 1.1461009541111641e+01 7.3795220062896005e-01 3.0539047988284662e+00 0 0 0
601 1 9.1506071958911739e-01 1.1846399799950193e+01 2.2077887416232760e+00 3.5907568581805895e+00 0 0 0
754 2 -6.3712625882647567e-01 1.2399377821315079e+01 3.9884680285379690e+00 3.3633132867515259e+00 0 0 0
782 1 9.9087106105810985e-01 7.0835874690869627e+00 7.3364649113586033e-01 5.8443294740789158e+00 0 0 0
348 2 -5.6958365416315582e-01 7.4401110035780311e+00 3.6508821455993474e+00 7.9705637515576155e+00 0 0 0
687 2 -9.1261960697824374e-01 7.1043098645670355e+00 6.7780833164556009e-01 7.2786697890728664e+00 0 0 0
619 1 9.5150934221290362e-01 8.9479346868467271e+00 2.8179216897371697e+00 4.3105944442399977e+00 0 0 0
593 2 -5.1947772615437260e-01 9.6001165157869526e+00 2.6406177177168892e+00 6.0663295000374520e+00 0 0 0
1573 1 9.0906361973947403e-01 5.2102023341184598e+00 2.4818383481768191e-01 3.5083024263861233e+01 0 1 0
618 2 -5.9170598348947523e-01 7.5716246646000478e+00 1.7729247181332912e+00 4.3837459294978887e+00 0 0 0
748 1 7.1700233515063616e-01 1.2518017430629294e+01 4.9752238103676021e+00 7.0523078517186288e+00 0 0 0
317 2 -6.3978740322182137e-01 9.6993761075281686e+00 3.3527992437669734e+00 8.3455351573650223e+00 0 0 0
459 1 8.6297520622280932e-01 8.4096065670535296e+00 1.6767217950703455e+00 7.9869389787704161e+00 0 0 0
88 2 -6.6805394812511121e-01 1.4290613360139357e+01 1.5157604923872259e+00 7.0424370786301322e+00 0 0 0
247 1 1.0166624665033372e+00 9.2949698734073412e+00 4.6764240733502884e+00 7.2608161832871527e+00 0 0 0
2576 2 -5.4641704399368896e-01 8.1195356788795472e+00 4.5215568309860643e+00 5.1365195705382565e+00 0 0 0
71 1 7.9507769449364829e-01 1.1109091077711842e+01 2.9713283348727271e-01 8.2183443452385418e+00 0 0 0
655 1 8.0633381436580265e-01 1.4686142127846948e+01 1.7067451275667802e+00 2.3675880823143807e+00 0 0 0
853 2 -7.7842373375098917e-01 1.3510289075765169e+01 1.5638815338992198e+00 3.8570725046915224e+00 0 0 0
925 1 8.3698652354967340e-01 1.7744022498087546e+01 3.1747501705592516e+00 3.4415208027405622e+00 0 0 0
889 2 -7.9896724086809379e-01 1.6526164461166761e+01 4.4698582183960625e+00 3.5610255025212965e+00 0 0 0
907 2 -6.8779874724529122e-01 1.6657980985672310e+01 1.6524807070298431e+00 3.3932700924413659e+00 0 0 0
167 1 9.0125090038968980e-01 1.4297401489652493e+01 1.5888168664384659e+00 5.5258440386778940e+00 0 0 0
943 1 8.2056995743692862e-01 1.5239444180167949e+01 4.5776866099195272e+00 4.8968489501380459e+00 0 0 0
28 2 -5.9855736560259010e-01 1.8292288126540157e+01 2.5846160170399797e+00 5.2822925281560371e+00 0 0 0
138 1 7.7646960846477353e-01 1.8257811265290496e+01 3.7426927866552959e+00 7.0378356252328800e+00 0 0 0
44 2 -7.8776904102368039e-01 1.5049271785327994e+01 3.4134795548357157e+00 5.7970038281395171e+00 0 0 0
191 1 1.0201899294640668e+00 1.7147899051434958e+01 7.5053433100291689e-01 5.2236341555223094e+00 0 0 0
338 1 8.9722029259897951e-01 1.5259380497241278e+01 3.2062682400745235e+00 7.5501288723528210e+00 0 0 0
989 2 -7.2709624398875727e-01 1.3778189947201128e+01 4.8159702434257428e+00 8.0610886122419334e+00 0 0 0
1149 2 -6.9733963668970900e-01 1.4849011769728749e+01 1.8632857737442890e+01 4.0040115957831745e+01 -1 0 0
1888 1 9.0802512073626318e-01 3.1928604494545549e+00 8.6648023429896472e+00 3.1379531520757031e+00 0 0 0
1852 2 -6.5527105517573125e-01 3.6051629777804748e+00 1.0051178267262342e+01 2.4720395845434413e+00 0 0 0
1277 2 -7.2721429516701463e-01 4.9267496198380094e+00 7.8230511778720535e+00 6.5433479475264260e+00 0 0 0
757 1 7.0905072078904308e-01 3.9075743076656093e+00 6.4118498056715074e+00 5.2796109309814074e+00 0 0 0
930 2 -8.6133299688716236e-01 2.2757014233510477e+00 6.1566897792138615e+00 4.9169103444275706e+00 0 0 0
1195 2 -6.9747255583524881e-01 2.9197055846429865e+00 8.3997128203322493e+00 4.9237401182160934e+00 0 0 0
1236 2 -8.9366489552953854e-01 5.2567415367895638e+00 4.8342460177794448e+00 4.6891631940800300e+00 0 0 0
2047 2 -7.8366743528251992e-01 2.7401338349912345e+00 9.1965778617581808e+00 7.3201591317395227e+00 0 0 0
1653 1 9.8391112222543642e-01 2.5589798976255183e+00 7.9818811551078506e+00 8.4072212605638299e+00 0 0 0
1092 2 -8.5014829785394408e-01 3.6361274510426704e+00 6.6787730069249278e+00 8.2875025769002626e+00 0 0 0
818 1 9.4852700935062728e-01 1.2134656502201047e+00 7.0056271325577590e+00 5.7095410465460228e+00 0 0 0
892 1 1.0003569986932546e+00 3.7754153969260549e+00 9.1140845186585935e+00 6.1109141281317774e+00 0 0 0
637 1 7.8147428501099203e-01 1.0604975118063509e+01 5.0768830541771752e+00 3.3792954486328388e+00 0 0 0
2203 1 1.0133339279616274e+00 1.1881060233357550e+01 8.1924168644894273e+00 3.1291078980019353e+00 0 0 0
2131 2 -6.6785806226824429e-01 7.2057446833832097e+00 6.9608537457622690e+00 3.9260737975267421e+00 0 0 0
2440 1 9.0179744497360448e-01 6.4614928222773660e+00 5.6104236301970287e+00 5.1975282019676463e+00 0 0 0
2185 2 -6.8183838562556986e-01 1.1101693037412362e+01 6.8528362480703233e+00 4.0502128303357683e+00 0 0 0
2221 1 7.1571667420928142e-01 7.2333983225906486e+00 8.7638644031118726e+00 4.6460443461022694e+00 0 0 0
2075 2 -7.9763589845477323e-01 1.1653902136492588e+01 8.2869824733349944e+00 6.2654407366893734e+00 0 0 0
2372 1 9.8847060314688229e-01 1.0557262158085269e+01 7.2016619791960910e+00 5.6731403214741318e+00 0 0 0
2253 2 -6.9243077836342970e-01 8.7008897837007755e+00 7.6978996886961006e+00 5.9532454990974299e+00 0 0 0
2505 2 -6.8406454792418625e-01 6.4358403001158440e+00 6.3174058275142837e+00 7.3135119335936336e+00 0 0 0
2398 2 -7.0335929631693539e-01 8.9575475771710362e+00 6.0285896852165743e+00 8.1454902408882663e+00 0 0 0
1644 1 1.0047321209465434e+00 8.3312913716874384e+00 7.6033750687159634e+00 7.3888070979102576e+00 0 0 0
557 2 -6.9552285696330196e-01 1.0804058471640735e+01 5.5140705678919266e+00 6.4715440798171295e+00 0 0 0
2523 1 1.0611754874434975e+00 1.1318644207091257e+01 9.1842292109901482e+00 7.6791007706753227e+00 0 0 0
1306 2 -5.1251263167923689e-01 7.3708624591412022e+00 9.2412767160756353e+00 7.8324359608989234e+00 0 0 0
1224 2 -7.4288804151002330e-01 9.9937104669385732e+00 8.9441937300473402e+00 8.1319824492714670e+00 0 0 0
1879 2 -7.7434736645550628e-01 1.1866458729506766e+01 1.0950763051882108e+01 7.4990672836749406e+00 0 0 0
1816 2 -8.1457543204473737e-01 1.7752328008075818e+01 7.5223099787369065e+00 2.5660247691190983e+00 -1 0 0
1717 2 -5.7907031165694589e-01 3.9353274863365872e-02 9.9036824991185259e+00 2.5637146545342606e+00 0 0 0
1323 1 8.5354797227493306e-01 1.5220233543761564e+01 6.0409138848444508e+00 8.5579083806438998e+00 0 0 0
2347 2 -7.5046194833905977e-01 1.3284770340452463e+01 8.1433829734483822e+00 2.7847949361926192e+00 0 0 0
2518 1 1.0874086886924053e+00 1.7602638936398279e+01 8.7605548525520938e+00 3.3970573532707879e+00 0 0 0
2482 2 -7.6460981609854994e-01 1.6030076735462735e+01 9.3169901444493259e+00 3.0876040136177956e+00 0 0 0
961 1 7.9292248961025791e-01 1.7669251570482690e+01 5.9194789383052200e+00 3.5816170488092620e+00 0 0 0
2536 1 8.7711408943688574e-01 1.4656832363077456e+01 9.3737150422621660e+00 4.2280888027960559e+00 0 0 0
13 2 -6.3738364535018732e-01 1.7962141892983027e+01 6.4128244327877324e+00 5.5199278617101095e+00 0 0 0
175 2 -6.0246389140638934e-01 1.8394805270292274e+01 8.6940875514785461e+00 4.9335726435091356e+00 0 0 0
294 2 -7.9116977768807928e-01 1.4327470846162973e+01 8.2317227196196985e+00 5.3854426511665103e+00 0 0 0
545 2 -6.5733046037601683e-01 1.5712927024905582e+01 6.5385972992659873e+00 6.8745271320295327e+00 0 0 0
729 1 9.3120989510088048e-01 1.3525078788968159e+01 7.8334275086065235e+00 6.5188941752812228e+00 0 0 0
833 1 8.8022251669528329e-01 1.6482647661801071e+01 7.7716513842976909e+00 6.2766373592258082e+00 0 0 0
387 2 -7.5174385148544498e-01 1.6654961157166685e+01 8.6828262777853258e+00 7.7471541931741337e+00 0 0 0
464 2 -8.5539704803082395e-01 1.4126702927099174e+01 7.6336517522429919e+00 8.0879157081382402e+00 0 0 0
426 2 -7.6185388664672504e-01 1.4057072068711520e+01 1.0116643670756398e+01 8.7944822435942065e+00 0 0 0
648 1 7.4977053734288435e-01 1.7522796977761576e+01 1.0960825219152616e+01 5.9805173886761445e+00 0 0 0
1003 2 -7.4269795968142516e-01 1.4322375296286964e+01 1.0974597491951574e+01 5.2238087648578890e+00 0 0 0
2024 1 9.9019228193318254e-01 3.0204234295508718e+00 1.3846720243124093e+01 3.0450862933423291e+00 0 0 0
1802 2 -9.0291420175312009e-01 4.4935147582613117e+00 1.3367877357028389e+01 3.3034614424585080e+00 0 0 0
1924 1 8.6719734465810716e-01 4.8662509993669660e+00 1.1436082355670926e+01 3.5897731661362116e+00 0 0 0
1783 1 8.9480590351872458e-01 5.4977286754986041e+00 1.4170224901861204e+01 4.1963071609311866e+00 0 0 0
1902 2 -6.8979355118850194e-01 5.1459414047065373e+00 1.4404547041859798e+01 5.9906125929710878e+00 0 0 0
1355 2 -6.7313881115164764e-01 4.4979305759103232e+00 1.1068973670630594e+01 5.2760308033241312e+00 0 0 0
2378 1 9.1618577085110853e-01 3.9240559458130573e+00 1.2615245151145986e+01 6.1889734754839543e+00 0 0 0
2020 2 -7.6978445578398358e-01 2.6872351560130991e+00 1.3127706420019781e+01 5.1714475861478544e+00 0 0 0
2215 1 9.0865490964836781e-01 2.3665504189338415e+00 1.0962114325505736e+01 7.7702045656373198e+00 0 0 0
2111 2 -5.6181698230276877e-01 7.0021125839207166e-01 1.1641050042491290e+01 6.9676495098460247e+00 0 0 0
2086 2 -8.4400252938785325e-01 3.7267007319386232e+00 1.2201861657758819e+01 7.7936548144624496e+00 0 0 0
1413 2 -6.7539163252875833e-01 3.2230336913896500e+00 1.5374680113620403e+01 7.7650944518770499e+00 0 0 0
2298 1 1.0219495925543678e+00 1.0300563665261495e+00 1.3257577709812328e+01 5.3313843409931021e+00 0 0 0
1210 2 -8.4643959749906750e-01 6.6109431578246569e-01 1.4443553653129738e+01 5.9176463195558835e+00 1 0 0
491 2 -7.2971632455866153e-01 5.2227636494644960e+00 1.6298926121434558e+01 8.5814027733272660e+00 0 0 0
1213 1 8.4447916610239260e-01 1.6241130051403956e+00 1.5820945891986925e+01 6.3668316894015851e+00 0 0 0
2269 1 8.7790033118695288e-01 4.6823285080636072e+00 1.5982223515660886e+01 6.9949999854701890e+00 0 0 0
1488 2 -7.2110271530699366e-01 2.3018793677186672e-01 1.5496802089920969e+01 7.9215823338659979e+00 0 0 0
1745 1 9.9719857715400140e-01 8.1824418228500786e+00 1.2451444873399330e+01 2.6961467276562745e+00 0 0 0
1263 2 -7.3270024517697752e-01 1.2179588714272038e+01 1.2193004345231174e+01 3.6338658987431804e+00 0 0 0
1578 2 -6.8542031410066817e-01 6.5538570793160824e+00 1.2601635072580436e+01 4.1170424308819031e+00 0 0 0
654 2 -7.7099826947524197e-01 1.1443176726269060e+01 1.3834341683428846e+01 6.5304176392682090e+00 0 0 0
1049 1 9.8149388136823668e-01 1.1142973974880999e+01 1.2371018805656838e+01 7.3090244899320211e+00 0 0 0
743 2 -4.6902465208093347e-01 8.5585687379364419e+00 1.3916654687219506e+01 6.0441240143773722e+00 0 0 0
886 2 -5.1137005339702157e-01 9.4754097013416470e+00 1.1400977354606946e+01 6.7297261433979871e+00 0 0 0
1018 1 7.3650030107461284e-01 7.5937463840962378e+00 1.2111089809057535e+01 5.5505591487334751e+00 0 0 0
61 1 9.6832000748048641e-01 8.2941608781482365e+00 1.4125335391283320e+01 8.2047119296373126e+00 0 0 0
829 2 -6.4478011139754987e-01 7.2971347708862151e+00 1.2245463430420967e+01 8.1074805466556299e+00 0 0 0
1033 1 1.0165094949346241e+00 8.6386408310111058e+00 1.0541149513670899e+01 8.4264609749555230e+00 0 0 0
944 1 8.7530588341546700e-01 1.1755414890519759e+01 1.5310495540678179e+01 7.2359642004012699e+00 0 0 0
574 2 -8.3341226025475379e-01 8.1658769077201239e+00 1.5415159737054003e+01 8.5057100435043793e+00 0 0 0
1849 2 -8.7093244071557729e-01 1.8460116938673572e+01 1.3477422908761568e+01 3.9691025216764606e+00 -1 0 0
2554 1 8.0714722566318364e-01 1.8215359196136401e+01 1.2006552026066398e+01 3.2744820849926954e+00 0 0 0
1190 1 9.9819305168804540e-01 1.7967525228363481e+01 1.4861903065962617e+01 3.7478536502426900e+00 0 0 0
1208 2 -6.8185456262696031e-01 1.4768140920714279e+01 1.2817155961755926e+01 3.1160741022101877e+00 0 0 0
1228 2 -6.6821300615977042e-01 1.6177897221698672e+01 1.4865215836274475e+01 3.9962906839968384e+00 0 0 0
1342 2 -8.4585571066676968e-01 1.1922720623775279e+01 1.4902663421911155e+01 3.7835521060639983e+00 0 0 0
2239 1 8.5374986224421356e-01 1.3742310320583922e+01 1.1198259719135308e+01 7.2074766527331340e+00 0 0 0
913 1 1.0234605636332272e+00 1.2526437724214038e+01 1.3935790068305710e+01 4.8795105734278232e+00 0 0 0
1119 2 -8.3702942542095071e-01 1.4318992604788981e+01 1.2601501352397616e+01 8.1113599694101506e+00 0 0 0
109 2 -7.0158711110329885e-01 1.6838457104597818e+01 1.1679870524664134e+01 4.8210950398568242e+00 0 0 0
875 1 1.0559164893529867e+00 1.4909116476136676e+01 1.2323878202576180e+01 4.5763990822776250e+00 0 0 0
1169 2 -7.9703264809509489e-01 1.3908515154844478e+01 1.3715157443180759e+01 5.3069727006452565e+00 0 0 0
1138 2 -6.2940820484598514e-01 1.7417297311004294e+01 1.3001310261411119e+01 8.6743972531702642e+00 0 0 0
1327 1 8.8028055458405519e-01 1.4311603190252294e+01 1.4080147898014332e+01 7.1364499627726969e+00 0 0 0
1547 2 -6.7526784310014643e-01 1.6294641085877881e+01 1.4942101520612987e+01 6.5131626248053749e+00 0 0 0
1515 2 -8.1373706198924944e-01 1.3341975644087096e+01 1.5474699184091309e+01 7.8456677195978131e+00 0 0 0
957 1 1.0133370733111386e+00 1.7775612473479462e+01 1.4615994255341047e+01 7.1728393149773026e+00 0 0 0
1756 1 9.5455175129478309e-01 5.4789730142029835e+00 1.7041197931798937e+01 4.2250548694112888e+00 0 0 0
103 2 -7.3297905335260716e-01 4.4808242761989447e+00 1.7434034093564652e+01 3.0465690377858445e+00 0 0 0
173 1 1.0240932535909169e+00 3.2763081268783489e+00 1.9043848206538108e+01 2.7855345867699417e+00 0 0 0
1770 1 8.4874982324035264e-01 1.6266586233757159e+00 1.6243007514070801e+01 3.2425085090432892e+00 0 0 0
1863 2 -7.9348510766120905e-01 5.0686911012387057e+00 1.7527588231586698e+01 5.6373858686951470e+00 0 0 0
1963 1 8.6043584853898392e-01 3.0110799977277525e+00 1.8134405581964870e+01 5.6980839669935968e+00 0 0 0
1790 2 -8.0430205617523665e-01 2.0046214620949598e+00 1.7135063109589783e+01 5.1883939110211390e+00 0 0 0
1710 2 -6.5513805534888425e-01 2.7699838031949162e+00 1.8988246662455190e+01 7.5560684835017646e+00 0 0 0
51 1 6.9794025396040071e-01 4.6030596137325199e+00 1.9556852013471683e+01 8.7827069210474242e+00 0 0 0
1690 2 -5.7050435361152885e-01 3.5344843996928312e+00 1.9718795151665077e+01 4.3444287366552610e+00 0 0 0
319 1 7.9081179636569410e-01 6.1856352502436014e+00 1.9280546628181675e+01 5.7169469033476927e+00 0 0 0
32 2 -7.0863926302258062e-01 6.1092285641468562e+00 1.9563257346600089e+01 7.7289168777748953e+00 0 0 0
1262 1 9.5049062599367606e-01 1.2519062928845721e+00 1.9844364415610734e+01 7.9213078123765550e+00 0 0 0
1662 2 -9.0687431767079862e-01 6.6569523544693094e+00 1.5844205952059010e+01 3.7200842356283408e+00 0 0 0
1566 2 -6.8639069482268467e-01 5.9927875760116684e+00 2.0232703336309651e+01 3.8580207131901987e+00 0 0 0
1552 2 -8.0545704028179277e-01 9.4736768601099453e+00 1.6500619526163835e+01 3.6602640157240072e+00 0 0 0
511 2 -9.4826636149371790e-01 1.1907538480100412e+01 1.8006383177702727e+01 3.6505577214055771e+00 0 0 0
168 2 -6.7387235604831308e-01 8.1215121040501899e+00 1.8920210033421281e+01 4.8967120843788106e+00 0 0 0
1476 1 9.2425351847502890e-01 1.1047608413389412e+01 1.6707539294789353e+01 4.3477501578070079e+00 0 0 0
193 1 9.3792686693706961e-01 1.1376732205703275e+01 1.9357933869589871e+01 4.3171274080288038e+00 0 0 0
84 1 9.1270950578699672e-01 7.5985955373098406e+00 2.0115988825684948e+01 7.9941924680573351e+00 0 0 0
22 2 -8.2668626007930934e-01 1.0390902758242460e+01 1.9384863554894682e+01 5.9035220231335890e+00 0 0 0
1496 1 9.6849029043357604e-01 8.0910365267726760e+00 1.5851791404141247e+01 4.5474187834745035e+00 0 0 0
513 2 -7.5732180584608533e-01 1.1115948947134479e+01 1.6807626272738272e+01 6.1389553000073729e+00 0 0 0
128 2 -6.5975121266143277e-01 7.7062393543540946e+00 1.6513101119574305e+01 5.9400531724884944e+00 0 0 0
473 1 9.4432421269452504e-01 8.9292464766863890e+00 1.8309686656518561e+01 6.0435172826333767e+00 0 0 0
4 2 -6.9751876164675775e-01 8.4576424526497416e+00 1.8396248994565145e+01 7.6758445722604627e+00 0 0 0
708 1 9.4573698567589815e-01 7.4319834479728000e+00 1.6888402105903403e+01 8.0318878986337499e+00 0 0 0
280 1 8.0388337159737566e-01 1.1484788115850636e+01 1.8346483001328838e+01 6.8553643441267642e+00 0 0 0
349 2 -7.0848996793111385e-01 1.1798653895204474e+01 1.7402980010704233e+01 8.6721293728012583e+00 0 0 0
293 2 -7.6009553473178071e-01 1.6577528547387729e+01 1.8417043683709629e+01 2.7389654869835383e+00 -1 0 0
266 1 9.9233435271003090e-01 1.3715941818404149e+01 1.7530792367670067e+01 3.4346822216054478e+00 0 0 0
579 2 -6.0741206363000166e-01 1.4438569811415038e+01 1.9211712799621019e+01 3.1954743050408263e+00 0 0 0
1159 1 9.3145586977825279e-01 1.7690877712868193e+01 1.7786324097808183e+01 3.0810713854213678e+00 0 0 0