LAMMPS data file via write_data, version 7 Aug 2019, timestep = 10000

2577 atoms
2 atom types

0.0000000000000000e+00 1.8560400000000001e+01 xlo xhi
0.0000000000000000e+00 4.2399999999999999e+01 ylo yhi
-8.3700219332821183e-03 4.1608869045380963e+01 zlo zhi

Masses

1 55.847
2 15.9994

Atoms # charge

7 1 8.0050924683002644e-01 3.0613220054196582e+00 1.1426940593654469e+00 3.3445017138310584e+00 0 0 0
52 1 8.3349295195409301e-01 1.3220420874634422e+00 4.4797995506151000e+00 1.8237430321345167e+00 0 0 0
106 2 -6.8129055448707909e-01 9.1105648621886959e-01 4.1301851954041027e+00 3.8607380823267867e+00 0 0 0
124 2 -5.6598280062147077e-01 2.4502865751902996e+00 3.2318876677781465e+00 9.4997733101268489e-01 0 0 0
205 2 -6.7366697628962213e-01 1.5292013121345771e+00 1.0188207942024636e+00 4.0664786167202474e+00 0 0 0
223 1 7.7046793245894163e-01 4.5494369873485550e+00 3.7303942835135482e+00 1.6602314521740256e+00 0 0 0
241 2 -6.5460696968011822e-01 4.6556189314417491e+00 4.0699417003335912e+00 3.5184975340417779e+00 0 0 0
259 2 -7.0319438995656358e-01 4.5580196033165254e+00 1.0714060417271647e+00 4.0894870465981912e+00 0 0 0
412 2 -7.9076853945617720e-01 6.1845546720500488e+00 2.3355232982355512e+00 1.7903107289778262e+00 0 0 0
1060 2 -7.5688880082667287e-01 1.8368677153384656e+01 2.7700504859756045e+00 1.6949324129158818e+00 0 0 0
178 2 -6.6191159600765714e-01 3.0263208692620536e+00 5.5023766858967127e+00 1.9895016426289072e+00 0 0 0
277 1 8.6969384709019626e-01 5.8227458703208672e+00 2.4870988614679379e+00 4.0124792516397569e+00 0 0 0
358 1 7.4377781826636713e-01 6.0557327980716869e+00 9.1588562606184742e-01 1.3107240625264702e+00 0 0 0
331 1 8.4341090351866965e-01 9.7301333195865851e+00 1.1554694657452163e+00 3.0075917508212271e+00 0 0 0
376 1 9.3287932572614352e-01 7.6082335503815335e+00 3.5493268118582670e+00 1.9047778179972725e+00 0 0 0
430 2 -7.1292520524028724e-01 7.3156826746867667e+00 3.9858307854705610e+00 3.4520295000010370e+00 0 0 0
448 2 -6.5610295802846008e-01 9.3455677303126397e+00 2.3141287221739915e+00 2.0508897605033289e+00 0 0 0
529 2 -6.4380152756810305e-01 7.2424322325358776e+00 1.2393602855403729e+00 4.4745971685169676e+00 0 0 0
547 1 7.9245928649233544e-01 1.0707221014207251e+01 4.1897930984031824e+00 2.0495126011905853e+00 0 0 0
565 2 -6.2115495304528257e-01 1.1093675761472600e+01 4.4215224414104775e+00 4.0000664980664240e+00 0 0 0
583 2 -7.7154752886937816e-01 1.0926092063137412e+01 1.2187207061846383e+00 4.0394024713980068e+00 0 0 0
601 1 8.4479311590380091e-01 1.2285133329022516e+01 2.6919395540761757e+00 3.9905054387672996e+00 0 0 0
502 2 -5.4065167831224104e-01 9.1760092043211010e+00 4.4565303219090051e+00 1.0880173989886968e+00 0 0 0
736 2 -7.1661932566540931e-01 1.2476056919583458e+01 3.0218797112121099e+00 1.8909725302204001e+00 0 0 0
1006 1 7.9472586730272943e-01 3.8477683698872012e-01 1.4810510274049298e+00 9.2453752528199296e-01 1 0 0
682 1 7.3525622336867813e-01 1.2258545028382255e+01 1.1244939653483690e+00 1.1233530050470804e+00 0 0 0
925 1 9.4601645443446025e-01 9.1724733924598331e-02 2.7598150514919508e+00 3.7720771048594517e+00 1 0 0
655 1 7.0258934918386484e-01 1.5175220739134414e+01 1.0552270921124578e+00 2.9672871252558859e+00 0 0 0
700 1 9.1874266420099293e-01 1.3788245440348438e+01 4.1175866295325569e+00 1.7266895789399679e+00 0 0 0
754 2 -6.7716846384670026e-01 1.3558355011386793e+01 4.3818831351918810e+00 3.6918440024233372e+00 0 0 0
772 2 -5.9901516849038006e-01 1.5370209374354857e+01 3.0299664701781173e+00 1.6140270925688385e+00 0 0 0
853 2 -6.5459230852842498e-01 1.3798794185339185e+01 9.9698194819360952e-01 4.1731115387350224e+00 0 0 0
871 1 8.7094242303193670e-01 1.6881512361948619e+01 4.0156486124928401e+00 1.6968705732144507e+00 0 0 0
889 2 -7.2415354723854397e-01 1.6841099895451418e+01 3.9326279209064308e+00 3.8772583457116707e+00 0 0 0
907 2 -5.9853877098986763e-01 1.7274729946506024e+01 1.2897277274150407e+00 3.8430250590436379e+00 0 0 0
790 2 -6.7380901650680869e-01 1.2391006595940484e+01 5.6548147485905442e+00 1.5187341459167036e+00 0 0 0
417 2 -5.5973141538644211e-01 1.4870988503977621e+01 2.0439969072478476e+01 1.6149612503626678e+00 0 0 0
1870 2 -6.3790451144880056e-01 4.9706991145512154e+00 7.1097265959896143e+00 4.1545631671757617e+00 0 0 0
1852 2 -6.5494975550686185e-01 4.7593753076173346e+00 9.8777154878214084e+00 3.8451783672008202e+00 0 0 0
1834 1 8.6008730737688066e-01 4.5684219580367831e+00 1.0230053978023644e+01 1.6676285517619041e+00 0 0 0
1816 2 -5.1846149464946911e-01 9.0895177264191163e-01 6.8583116743938071e+00 4.4405730573817790e+00 0 0 0
1735 2 -5.8712815935109475e-01 2.8813139826725487e+00 8.7488151290467897e+00 1.7672964018649173e+00 0 0 0
1717 2 -6.5201228997676219e-01 1.0677069901446621e+00 9.9046085574176388e+00 4.0802202071045581e+00 0 0 0
1663 1 7.4316804222882171e-01 1.2076474996333491e+00 9.9515662449038782e+00 1.7943309485730592e+00 0 0 0
1627 1 7.6893489634601164e-01 3.2064809291318439e+00 6.8649676707185332e+00 2.6594785737173017e+00 0 0 0
2530 2 -8.1736422535504316e-01 1.8020369045804006e+01 8.4647951766454046e+00 2.1446210528926080e+00 0 0 0
2518 1 8.8165626594607149e-01 1.8168471635768608e+01 8.5744320435259151e+00 4.2126887636333024e+00 0 0 0
961 1 9.8601538860191618e-01 1.7973176915276429e+01 5.4247371778136051e+00 3.9089397346805281e+00 0 0 0
466 2 -4.7831192115147880e-01 6.0202674414917157e+00 5.0105458406505612e+00 6.7375528407077223e-01 0 0 0
313 1 8.5534610188838689e-01 6.2021553206684663e+00 5.5463313732737678e+00 3.9208883548246374e+00 0 0 0
2014 2 -6.5383464447522732e-01 5.9087230154479560e+00 9.1158682117310601e+00 9.0562842918586017e-01 0 0 0
1960 1 7.1629026135077245e-01 6.2157882668050606e+00 7.4245716589832575e+00 1.1591728307597715e+00 0 0 0
1888 1 9.1096886725096560e-01 6.0104829418619454e+00 8.7458559930425306e+00 4.0089162932852638e+00 0 0 0
2185 2 -6.6016182554455849e-01 1.0763813531840022e+01 6.9968871928105791e+00 4.1428894561526324e+00 0 0 0
2167 2 -6.8707837818159201e-01 1.1010708594444036e+01 1.0437116950067272e+01 3.9973184602764271e+00 0 0 0
2149 1 8.7420358935795928e-01 1.0610059609255019e+01 1.0058134704760741e+01 1.7259992520443665e+00 0 0 0
2131 2 -6.6500895298252638e-01 7.0163650634291512e+00 6.9117728935135521e+00 2.9731807698477879e+00 0 0 0
2050 2 -6.2275495569253458e-01 9.1038972573506367e+00 8.7996756174942075e+00 2.0267767114104664e+00 0 0 0
2032 2 -7.3564164656942121e-01 7.1899874917721176e+00 1.0086667763125190e+01 3.4800603393498171e+00 0 0 0
1978 1 9.3357677664223004e-01 7.6137403211331396e+00 1.0393924326780933e+01 1.8908413512970630e+00 0 0 0
1942 1 6.9932057530820257e-01 9.2236276124257959e+00 7.3534887132908944e+00 3.0197571631929527e+00 0 0 0
2203 1 9.2199938396724168e-01 1.2192961029670226e+01 8.7628482758850677e+00 3.8938991994999479e+00 0 0 0
2221 1 7.0531699484086263e-01 9.3174813246899895e+00 9.9619383641356070e+00 5.6154078786052875e+00 0 0 0
2329 2 -8.1238588211583806e-01 1.2152590253531672e+01 8.7362490795621124e+00 1.9590099473963445e+00 0 0 0
637 1 9.1439148466391362e-01 1.2512378605530252e+01 5.7451433744701124e+00 3.8284916068304455e+00 0 0 0
2275 1 7.5797525886193984e-01 1.2211936660942705e+01 7.4695842789389992e+00 1.2202322162756685e+00 0 0 0
826 2 -5.6600476354383644e-01 1.5526965865701884e+01 5.1678993263277926e+00 1.4875465479023857e+00 0 0 0
1114 2 -7.8787821358592680e-01 1.8430332594856488e+01 5.5119447791261260e+00 2.3642457672247756e+00 0 0 0
2569 1 7.3751059216277481e-01 1.8249248295310906e+01 7.2428147701240357e+00 1.5057193000648694e+00 0 0 0
2500 2 -7.4904508905732670e-01 1.6535259743970251e+01 7.0036403334402744e+00 4.4459437754824886e+00 0 0 0
2482 2 -6.2245833306611342e-01 1.6743312692102581e+01 1.0038968096920089e+01 3.8277573968485545e+00 0 0 0
2464 1 8.4820929442244530e-01 1.6798524596988987e+01 9.9831299325819156e+00 1.9572478971859093e+00 0 0 0
2446 2 -7.6781724491836023e-01 1.3667189153053386e+01 7.2429175955013543e+00 4.1838507887064189e+00 0 0 0
2365 2 -5.6513285542349623e-01 1.5149493470489748e+01 9.0224268471833788e+00 1.3347115574444746e+00 0 0 0
2347 2 -6.4768905857515313e-01 1.3403133299582258e+01 1.0227947734289895e+01 3.3972985657392845e+00 0 0 0
2293 1 9.3214538131103453e-01 1.3635036395343791e+01 1.0242183726427434e+01 1.8059945901377885e+00 0 0 0
2257 1 8.5797857283991152e-01 1.5118733157686382e+01 7.3374989542315570e+00 3.6852341119218548e+00 0 0 0
2419 2 -5.7028105807672158e-01 1.5171964432249410e+01 1.1581901940085865e+01 1.8983953429543452e+00 0 0 0
2068 2 -7.6988758204919960e-01 5.7875114837990393e+00 1.1626578195972540e+01 1.9580431675716958e+00 0 0 0
2024 1 6.5842748449974053e-01 2.5126973004535089e+00 1.3176429860874974e+01 3.0225355433798056e+00 0 0 0
1914 2 -5.8937340634947255e-01 2.6250932109889908e+00 1.4984281540310590e+01 1.5949453495207460e+00 0 0 0
1849 2 -6.6764273524109952e-01 1.2284878776639250e+00 1.2799284693834656e+01 4.4676625908801944e+00 0 0 0
1802 2 -6.7190347003022910e-01 4.7153152959122488e+00 1.2867147505071955e+01 4.3604477641230970e+00 0 0 0
1789 2 -5.7261405681760857e-01 2.8321573990618591e+00 1.1164985064600435e+01 1.8828277006846716e+00 0 0 0
1729 1 7.5276197960118085e-01 5.6322879182103849e+00 1.3275751006886088e+01 1.4349470635216572e+00 0 0 0
1678 2 -7.2388910136740614e-01 5.6479684512339414e+00 1.4825677455658603e+01 1.7483908227743585e+00 0 0 0
1783 1 8.6736497610710517e-01 5.8523419659958060e+00 1.4431951429226022e+01 4.1005408582437521e+00 0 0 0
1082 2 -7.8355227356531454e-01 1.8109941421439569e+01 1.4688081381348814e+01 1.9457735808799703e+00 0 0 0
1128 1 7.1981194685381233e-01 1.8076461234861206e+01 1.3335654587528163e+01 1.5011990785975824e+00 0 0 0
1924 1 8.9155464211749802e-01 5.9812234543244411e+00 1.1616611308254942e+01 3.8777017425295948e+00 0 0 0
2104 2 -6.2439219220509046e-01 8.9614747791887606e+00 1.0881070813641069e+01 1.1787719657740943e+00 0 0 0
1745 1 7.4030898219401520e-01 9.0376853540837168e+00 1.3282352239173056e+01 3.3836546160965821e+00 0 0 0
1651 2 -5.3850247613291125e-01 8.6005153697642100e+00 1.4864726684797088e+01 1.5329169070082360e+00 0 0 0
1578 2 -7.3972021267554067e-01 7.6252320735099204e+00 1.3129231364226701e+01 4.1466051998712077e+00 0 0 0
1533 2 -7.0230385970022935e-01 1.1032505672048117e+01 1.3222367050139997e+01 3.0812625281482466e+00 0 0 0
1517 1 8.8068234061477857e-01 1.1937105629333656e+01 1.4671859687688512e+01 4.1358132663219056e+00 0 0 0
1369 2 -5.7792949939347404e-01 1.1784372656199558e+01 1.5287085386032652e+01 8.4482190439802174e-01 0 0 0
1552 2 -6.1548874012090338e-01 1.0577724882597384e+01 1.6127382256000949e+01 3.8517525981078720e+00 0 0 0
1713 1 9.2269804929421750e-01 7.1088256170294253e+00 1.6074089017936270e+01 2.0867079835148554e+00 0 0 0
1496 1 7.7113068152929931e-01 8.8783659868325344e+00 1.6263147792919934e+01 5.7817177029689422e+00 0 0 0
2383 2 -6.1097843648307137e-01 1.1914149447422469e+01 1.1182342454874032e+01 1.1641722644606818e+00 0 0 0
2239 1 9.0550779979642337e-01 1.2111454645659592e+01 1.1703144390471092e+01 4.1979899946008095e+00 0 0 0
1430 1 7.0913598555635804e-01 1.1439059892295443e+01 1.3358905606093455e+01 1.1357190102418382e+00 0 0 0
2554 1 9.4448036009324543e-01 1.8376838795218220e+01 1.1488857608593419e+01 4.2327370425115252e+00 0 0 0
2483 2 -6.9503994628735410e-01 1.8310701845435048e+01 1.1330912703078102e+01 1.9567553702086435e+00 0 0 0
1455 1 7.2455105432069966e-01 1.5031820795049942e+01 1.3065651849532250e+01 3.1375760734917439e+00 0 0 0
1330 2 -5.7870593391164982e-01 1.5042146331840867e+01 1.5185328869750400e+01 1.3320213160629222e+00 0 0 0
1190 1 8.9345578621447153e-01 1.8092552568704008e+01 1.4452356553766975e+01 4.2076756738546166e+00 0 0 0
1208 2 -6.8261496130004462e-01 1.7059131938237513e+01 1.3179577874521883e+01 4.3822718913676839e+00 0 0 0
1263 2 -6.9923330418160690e-01 1.3449706386084499e+01 1.2872821399383104e+01 4.3230829944375166e+00 0 0 0
1342 2 -7.4211400100318103e-01 1.2950998933037269e+01 1.5997693258743265e+01 3.4044101301054890e+00 0 0 0
1228 2 -5.9098031932583461e-01 1.6553951272438855e+01 1.6103092377532001e+01 3.9918690795020044e+00 0 0 0
1993 1 9.1458009464476142e-01 9.4693469399857777e-01 1.6161195580695068e+01 1.9606413005414236e+00 0 0 0
1829 1 9.0241252458869625e-01 3.9522142114099839e+00 1.6328149932460573e+01 2.1775386054865269e+00 0 0 0
1813 2 -6.7517525149090940e-01 4.5563437229406611e+00 1.6096485023933550e+01 4.4162989833499600e+00 0 0 0
1925 2 -5.9447483131754142e-01 4.9126458638295922e-01 1.6158973094686655e+01 3.6985590195677234e+00 0 0 0
231 2 -6.5873601877418031e-01 4.5401094571957898e+00 1.8835046219300054e+01 4.3256197058782178e+00 0 0 0
293 2 -6.8683634235604729e-01 7.2052871257148188e-01 1.8895006180410107e+01 4.0579160375808048e+00 0 0 0
520 1 6.9333351649855102e-01 1.9283039159894106e+00 1.9097871500011983e+01 2.7716414860333711e+00 0 0 0
1878 2 -6.8025669420575097e-01 2.2529065490281304e+00 1.7113029607444201e+01 2.1766501147033264e+00 0 0 0
1631 2 -7.5329981679783997e-01 5.2282289624307934e+00 1.7396819526989955e+01 1.9613675350913935e+00 0 0 0
1756 1 9.1290890672763991e-01 5.7593192446601451e+00 1.7555855154483968e+01 4.0911005144093684e+00 0 0 0
64 2 -7.8304238074128352e-01 5.4529946278162686e+00 2.0512431335030506e+01 1.7763674770376181e+00 0 0 0
203 1 9.3748421971261175e-01 5.8044382960668726e+00 2.0556102227342606e+01 3.9673663773963113e+00 0 0 0
780 2 -7.3464038019888389e-01 1.7886849464407138e+01 2.0627801441551895e+01 1.7458678934566827e+00 0 0 0
116 1 7.4979950095315961e-01 5.4000732469188568e+00 1.9083210602887355e+01 1.3880392005122151e+00 0 0 0
1662 2 -7.0367935612072896e-01 6.8940421293929752e+00 1.6061861991174585e+01 3.7589239386597706e+00 0 0 0
103 2 -6.9648925354832214e-01 7.1649824060535812e+00 1.9326805368998432e+01 4.1676072993433717e+00 0 0 0
141 1 6.5951663421226780e-01 8.5178705523896419e+00 1.9200624074278448e+01 2.9898662699101446e+00 0 0 0
168 2 -6.1062696803684258e-01 1.0276170118658660e+01 1.9158208261312087e+01 4.4006310546632204e+00 0 0 0
373 2 -6.7911026982901401e-01 1.1735388156923063e+01 2.0530121473928880e+01 1.7880130990112404e+00 0 0 0
1601 2 -6.3662004067360944e-01 8.3363109065662346e+00 1.7419492755499661e+01 1.7174556267510317e+00 0 0 0
1564 1 7.9674762614469508e-01 1.0276449898722333e+01 1.6448290460699575e+01 1.6961606373587583e+00 0 0 0
193 1 9.1885448657291546e-01 1.1943572683931800e+01 2.0772873471132105e+01 4.1065454263495731e+00 0 0 0
1476 1 9.2197982805031842e-01 1.1864973980457961e+01 1.7593443314870090e+01 4.0699255728319415e+00 0 0 0
285 1 7.4675911957263930e-01 1.1797351124744587e+01 1.9051988322407251e+01 1.1198588093427797e+00 0 0 0
1318 2 -7.5967178965677296e-01 1.1768126701631999e+01 1.7543463012789339e+01 1.8013594468886529e+00 0 0 0
612 1 8.6008642063372276e-01 1.7845464812437605e+01 2.0489107477016233e+01 3.9027471500681972e+00 0 0 0
1404 1 9.5005417947657267e-01 1.3325549679013994e+01 1.6320046015399658e+01 1.8691657303783880e+00 0 0 0
1245 1 8.3453379248732074e-01 1.6482574723856789e+01 1.6197063316760108e+01 1.5179509257194532e+00 0 0 0
703 1 6.7812885135599854e-01 1.7686134734771272e+01 1.9266648068709387e+01 9.3211746568512643e-01 0 0 0
266 1 8.5408047647122376e-01 1.4880909016747420e+01 1.8639551339844740e+01 3.0248352271347545e+00 0 0 0
511 2 -6.8352884815728832e-01 1.3282935517380569e+01 1.9223939172535356e+01 4.3364430722540721e+00 0 0 0
579 2 -7.5875173411660035e-01 1.6496954296087591e+01 1.8853776242009534e+01 4.0954526822697206e+00 0 0 0
1028 2 -7.4621457722294560e-01 1.7723436187627556e+01 1.7444756802677361e+01 1.5494240328331235e+00 0 0 0
1159 1 9.3844416665982244e-01 1.7674168245673687e+01 1.7590650690149914e+01 3.7579263629961717e+00 0 0 0
1285 2 -6.8696062344538844e-01 1.4792841141749305e+01 1.7575346465104801e+01 1.8354123791203121e+00 0 0 0
724 2 -5.7278264889991282e-01 3.4110333504615298e+00 2.0521235112641921e+01 3.3468405359729609e+01 0 0 0
1178 1 7.1407266315296214e-01 1.4976281446809406e+01 1.6029386988201328e+01 5.7940803336508209e+00 0 0 0
295 1 7.1368075652711638e-01 2.8477901799788494e+00 4.2065634429729029e+00 5.2601845476691516e+00 0 0 0
1275 2 -6.3679702889514023e-01 5.8781196684899033e+00 2.3410312110908884e+00 6.3160065885134262e+00 0 0 0
1513 1 1.0005503986211657e+00 4.4220889057322044e+00 8.0971466197447828e-01 6.2421614755554664e+00 0 0 0
1479 1 9.0618075111173146e-01 1.5152663823159283e+00 7.4381598872761889e-01 6.1401310835846008e+00 0 0 0
1445 1 8.0924663511542361e-01 5.7474531743783945e+00 3.5944332532925807e+00 7.6284820381188574e+00 0 0 0
1310 2 -6.2473057304893975e-01 3.1582904759001100e+00 1.9609074079138531e+00 6.3984262160828038e+00 0 0 0
949 2 -6.3529100550311546e-01 4.2555552434266577e+00 3.7670524417462290e+00 8.5764786916334721e+00 0 0 0
992 2 -6.6687075905994819e-01 1.8234618285237276e+00 4.3860551175651334e+00 8.7018495617871707e+00 0 0 0
1382 2 -7.8157386744476831e-01 1.4082921754419411e+00 7.1818486509812118e-01 8.4453493307356915e+00 0 0 0
1140 1 8.5477080585232978e-01 2.7201862958163026e+00 2.3989392846156008e+00 8.6781347961744650e+00 0 0 0
1339 2 -6.3743818612754122e-01 4.0323335873721362e+00 8.3077697479918933e-01 8.3785122441375766e+00 0 0 0
526 1 7.2938925389339182e-01 5.6661745975279203e+00 6.9863898604475605e-01 1.0235998014232509e+01 0 0 0
619 1 7.3228063809624433e-01 8.8036556420196117e+00 4.0026379207382847e+00 5.5259420856255508e+00 0 0 0
782 1 8.6224539254569643e-01 7.5988801982141929e+00 9.7027647088774926e-01 6.2320614011766668e+00 0 0 0
814 1 8.8809502164353060e-01 1.0653299552395779e+01 1.0933354004493772e+00 6.0332383012296713e+00 0 0 0
618 2 -6.7500858439291245e-01 9.2080483544370235e+00 2.4122977009844542e+00 6.3876403188998783e+00 0 0 0
317 2 -6.4757235329193696e-01 1.0143421909784768e+01 3.6179194601193689e+00 9.0043688869563621e+00 0 0 0
348 2 -6.7232509172418875e-01 7.4835948846747051e+00 3.9916883949386159e+00 8.7702697451271288e+00 0 0 0
459 1 1.0017963799441827e+00 9.0206202612414117e+00 2.4155981987873583e+00 8.6151319054330120e+00 0 0 0
649 2 -5.8133789511179446e-01 1.0668494422031651e+01 8.4757613580421465e-01 8.2942957839275397e+00 0 0 0
687 2 -7.5425067985239291e-01 8.1784324378738233e+00 1.2104042592795619e+00 8.4051323254443826e+00 0 0 0
71 1 7.4731840347619671e-01 1.2011219745367708e+01 1.0555870834013932e+00 9.9060988622625441e+00 0 0 0
748 1 7.4467522452746715e-01 1.2089867993019643e+01 4.0709052428821701e+00 6.8741059517060128e+00 0 0 0
593 2 -6.7756750660537901e-01 1.2382590942579636e+01 2.3148653446614840e+00 6.0497529969268280e+00 0 0 0
28 2 -6.2447684224051880e-01 2.8929980504568198e-01 2.0807803243929270e+00 5.8252855476236860e+00 1 0 0
138 1 7.0232707540581141e-01 1.8196788231436532e+01 4.2445368438850668e+00 7.6904969607954445e+00 0 0 0
943 1 8.6333108544655512e-01 1.5536607197463059e+01 3.7747733464721538e+00 4.9447266031229216e+00 0 0 0
44 2 -7.1604782787545684e-01 1.5430022196921762e+01 2.7057205712961969e+00 6.0723141996206884e+00 0 0 0
167 1 1.0038382853287584e+00 1.3862403109257693e+01 1.2168470369264004e+00 6.0469740728764041e+00 0 0 0
191 1 9.1428620708767672e-01 1.7111612899176571e+01 1.2313784311040212e+00 5.9523765781337374e+00 0 0 0
59 2 -6.8715313362262520e-01 1.6873089352936873e+01 1.0222160053470797e+00 7.8332481083985677e+00 0 0 0
88 2 -6.2872686098365971e-01 1.4163689717398247e+01 7.2654160308713411e-01 7.8636523210573417e+00 0 0 0
2485 1 7.8837437226668605e-01 4.2438417927114939e-02 6.7564939773430466e-01 8.9180872521082932e+00 1 0 0
338 1 8.5589188617351997e-01 1.5489832228725549e+01 2.5431729171788011e+00 8.3763778973828291e+00 0 0 0
989 2 -6.0447016885686322e-01 1.3866770358834280e+01 4.0761492632361449e+00 8.5405891361303077e+00 0 0 0
1118 2 -7.1914532970858980e-01 1.6706235949239993e+01 4.1654370289957043e+00 8.5528900896286295e+00 0 0 0
1906 1 7.9748668938225487e-01 2.8254668082467602e+00 9.5981516029583780e+00 4.9471819635760488e+00 0 0 0
757 1 9.5094108091379226e-01 4.5743219729423945e+00 6.8620243781912711e+00 6.1319022311489295e+00 0 0 0
818 1 9.6270985767878425e-01 1.3950183051026606e+00 7.0173988465330979e+00 6.4590718469595414e+00 0 0 0
930 2 -6.7001694013767399e-01 3.0074804362445020e+00 5.7109820024270297e+00 6.2758650377542287e+00 0 0 0
1195 2 -6.8844734234325899e-01 2.9808131003931848e+00 8.3877237484088027e+00 6.1836342156971877e+00 0 0 0
1236 2 -6.8027667933270852e-01 6.3925694549391983e+00 5.9945744338785616e+00 5.9066715448332721e+00 0 0 0
2047 2 -7.1602730344900900e-01 3.8872813999380256e+00 9.9770726602070567e+00 8.6532046826896956e+00 0 0 0
1932 2 -7.1741317716875863e-01 1.1393328290866727e+00 9.9562618801093645e+00 8.6080619695752656e+00 0 0 0
1653 1 9.2909072977020801e-01 2.8710466530904646e+00 8.8445930589347945e+00 8.2814377090005653e+00 0 0 0
881 1 9.6202408504633619e-01 3.0222149709476347e+00 5.5018845552926923e+00 8.5442651542243286e+00 0 0 0
1019 2 -6.3819376309687947e-01 1.7757556021065359e+00 7.0978346869870999e+00 8.1320272096706496e+00 0 0 0
1092 2 -6.9168051166196909e-01 4.5646257430009403e+00 6.6422173613381981e+00 8.0398145332731232e+00 0 0 0
1757 1 7.1552413087915889e-01 5.8701198124679852e+00 7.3087838883873610e+00 9.0187619515700099e+00 0 0 0
1277 2 -6.7202165471148734e-01 5.9447211366755894e+00 8.3547479396160167e+00 5.9326918357003748e+00 0 0 0
648 1 8.0826461592365439e-01 1.8524356619813734e+01 9.9359704032171763e+00 7.5852232034489999e+00 0 0 0
175 2 -6.2533000665839600e-01 1.8376485803067197e+01 8.2786231202122043e+00 6.1382236879954331e+00 0 0 0
892 1 7.4985005982747033e-01 5.6487863233631685e+00 1.0104351351756485e+01 7.0316459301488567e+00 0 0 0
2576 2 -6.5630780952471224e-01 9.1740558678642259e+00 5.5460265642567474e+00 6.5066653657877875e+00 0 0 0
247 1 9.2269934318032631e-01 8.7632399976739226e+00 5.4632050414152600e+00 8.6715821892709801e+00 0 0 0
2523 1 7.6897275957655709e-01 1.2047466406759790e+01 1.0296615588949912e+01 8.0629820587465666e+00 0 0 0
2440 1 8.5064065812599499e-01 7.5994098933075280e+00 7.1084381813850621e+00 6.2129053311175060e+00 0 0 0
2372 1 8.7520820444185277e-01 1.0646750781723641e+01 6.8848067832163107e+00 6.1960399803396147e+00 0 0 0
2253 2 -7.2833109820500996e-01 9.2403545446568547e+00 8.3603566302807568e+00 6.5089517919273625e+00 0 0 0
1 1 7.5837946006983536e-01 1.1988726162330574e+01 6.8229564028651444e+00 9.3061049903675510e+00 0 0 0
2505 2 -6.6456142908127847e-01 7.8823037048630775e+00 6.9774636487787660e+00 8.2016850365863583e+00 0 0 0
2398 2 -7.0054686756571471e-01 1.0516986444089527e+01 7.0266425296103234e+00 8.4877393200600793e+00 0 0 0
1644 1 9.2594591196516118e-01 9.3351770320662677e+00 8.4650457960032490e+00 8.5050884645947367e+00 0 0 0
1306 2 -6.0804028965606316e-01 7.9433538969309225e+00 1.0211882139306020e+01 8.8981002838928926e+00 0 0 0
1224 2 -7.3501018751327163e-01 1.0630996680900410e+01 9.9669733385845589e+00 8.8055352699044214e+00 0 0 0
2075 2 -6.5637656013318657e-01 1.2362436643283933e+01 8.4591605874976423e+00 5.7456388629750785e+00 0 0 0
557 2 -6.7641497320463184e-01 1.2214489682199442e+01 5.8176035190292872e+00 6.1623441356107636e+00 0 0 0
2536 1 8.1831992996023639e-01 1.5308714505053405e+01 9.9901315638286672e+00 5.8013667648853913e+00 0 0 0
1323 1 8.9832918760048697e-01 1.5091190986136720e+01 5.5611169092357464e+00 8.5625744396029191e+00 0 0 0
13 2 -6.0549760330926417e-01 1.8325033340361628e+01 5.6854841513686800e+00 6.1616670503929916e+00 0 0 0
294 2 -6.9178840865029811e-01 1.5298325850827496e+01 8.7089304098415745e+00 6.6381880879282598e+00 0 0 0
545 2 -6.5959570949050361e-01 1.5087172528590433e+01 6.1636395218940105e+00 6.7311917339248257e+00 0 0 0
729 1 9.1864918099946913e-01 1.3526118689955533e+01 7.3387700028275109e+00 6.3422127897436251e+00 0 0 0
833 1 9.1836073356087677e-01 1.6668083681501837e+01 6.9051917082884078e+00 6.3276357026639598e+00 0 0 0
154 1 9.3860256217998128e-01 1.5003744471239367e+01 8.6203388235084173e+00 8.8231432599491075e+00 0 0 0
387 2 -5.6896245034619164e-01 1.6627523048543129e+01 7.4464286660282584e+00 8.5266807980916539e+00 0 0 0
426 2 -7.3002943718133562e-01 1.3884708315008725e+01 1.0220631248884812e+01 9.1013585379913167e+00 0 0 0
464 2 -6.9672795022161838e-01 1.3833521964155166e+01 7.4220074084862802e+00 8.6445526753687840e+00 0 0 0
469 2 -5.8704737513581640e-01 1.6622044696850889e+01 1.0265690291581699e+01 9.0817738721061740e+00 0 0 0
2378 1 9.2582527406897897e-01 4.2977489920057490e+00 1.3116513480176067e+01 6.3276781014186110e+00 0 0 0
2298 1 9.1205174992488192e-01 1.3524216427689335e+00 1.3307581206090239e+01 6.2858731832686230e+00 0 0 0
2180 2 -6.0239790643237845e-01 2.9201053080313786e+00 1.2018697260495351e+01 6.7993067308111046e+00 0 0 0
2020 2 -7.7266412600062784e-01 3.0712099759942313e+00 1.4765740181663260e+01 6.2980979811356059e+00 0 0 0
2215 1 9.7510976351879797e-01 2.7124336882480606e+00 1.1740226568751773e+01 8.7824655003247507e+00 0 0 0
2111 2 -6.6369578063949142e-01 1.6689125071672415e+00 1.3090117913966417e+01 8.3964832184963800e+00 0 0 0
2086 2 -6.1195365736194995e-01 4.4822292364841037e+00 1.3091774782746111e+01 8.3789343306375361e+00 0 0 0
1715 1 8.0417524573991139e-01 2.8656638577079230e+00 1.4759955954598702e+01 8.5185817068249978e+00 0 0 0
452 1 7.8011297717745365e-01 6.1212131497392406e+00 1.2951613686188024e+01 9.4249531850661779e+00 0 0 0
1210 2 -6.9627336395566042e-01 1.8500203248955327e+01 1.4505372648591955e+01 6.1496962451227839e+00 0 0 0
109 2 -6.0969527984414196e-01 1.8204201858173576e+01 1.1751267102577964e+01 5.8507198409461472e+00 0 0 0
1626 2 -6.2575564786535010e-01 2.6676264127718929e+00 1.4825783345844911e+01 1.0857696937621180e+01 0 0 0
1902 2 -6.3545162451701309e-01 6.1627790886056868e+00 1.4190123671472708e+01 5.9854234808223525e+00 0 0 0
1355 2 -6.3627923019269561e-01 5.9119542287872040e+00 1.1506480106595045e+01 6.2143987892349539e+00 0 0 0
886 2 -6.3528640539907222e-01 9.0228402812518151e+00 1.1739396919476780e+01 6.4632834786807258e+00 0 0 0
1879 2 -6.3257952951744245e-01 1.2071756038501283e+01 1.2124013125184087e+01 6.4471466961200568e+00 0 0 0
654 2 -7.2328906192712039e-01 1.1683876445557891e+01 1.4356469922596824e+01 5.8987126789573114e+00 0 0 0
1049 1 8.8456919314591842e-01 1.0547491389751510e+01 1.3216363549518661e+01 6.4821155766490781e+00 0 0 0
743 2 -6.6460566905706986e-01 8.9662560310817732e+00 1.4379933619320076e+01 6.6413175294111033e+00 0 0 0
1018 1 9.6013772556196053e-01 7.5084244527590824e+00 1.3111745133727586e+01 6.1941067556630474e+00 0 0 0
61 1 8.5325606460452819e-01 8.9775436754141396e+00 1.4608334468022919e+01 8.8099652693587398e+00 0 0 0
785 2 -6.3475994651912082e-01 1.0198581988445127e+01 1.3068643479973172e+01 8.6956110422772408e+00 0 0 0
829 2 -6.3979831623340222e-01 7.6983931838995874e+00 1.2991652218935066e+01 8.3188228209085526e+00 0 0 0
1033 1 9.0312827723623623e-01 9.1214425024384944e+00 1.1595664620610192e+01 8.7661549544190258e+00 0 0 0
1274 1 8.2160804070009807e-01 1.2400641956104371e+01 1.3132128528427764e+01 1.0673764327813327e+01 0 0 0
2269 1 7.2146023895960398e-01 6.1296526799120770e+00 1.6433692720439385e+01 7.9656409683598763e+00 0 0 0
1997 1 7.2885478894708444e-01 1.8186202383936621e+01 1.3247002762040038e+01 9.9087319340974833e+00 0 0 0
875 1 8.6022821439357522e-01 1.6783198813282780e+01 1.3233794880044560e+01 6.4651922622122786e+00 0 0 0
913 1 8.4787571658789351e-01 1.3679213909896610e+01 1.3268304546160252e+01 6.3053397321024427e+00 0 0 0
1003 2 -5.8912935032068803e-01 1.5262867497034058e+01 1.1729337072738733e+01 6.5709341536288139e+00 0 0 0
1169 2 -7.4064880384502552e-01 1.4970063722648559e+01 1.4660409634479088e+01 6.7613505443858690e+00 0 0 0
509 1 9.5932514811238456e-01 1.5196984804221886e+01 1.1469355205649590e+01 8.9453483289161912e+00 0 0 0
1119 2 -6.6562173969585792e-01 1.4155934675969929e+01 1.2788349459722212e+01 8.5468812404862078e+00 0 0 0
1138 2 -6.0322588044034176e-01 1.6587240373846718e+01 1.3149749874923945e+01 8.4303895349350402e+00 0 0 0
1327 1 8.9721521147540284e-01 1.4907913870317673e+01 1.4434057044588256e+01 8.7387044232666842e+00 0 0 0
1770 1 8.9421098254110476e-01 3.3017338695468355e+00 1.6108663072672393e+01 5.7064140454352250e+00 0 0 0
1413 2 -6.9902318350075832e-01 4.2973615694915557e+00 1.6201670906832184e+01 8.8633560512517366e+00 0 0 0
1940 1 9.4689296945797863e-01 1.0182322884957105e+00 1.9000125993272675e+01 5.9636852047680229e+00 0 0 0
1566 2 -5.6149603336744724e-01 5.6618073995082119e+00 2.0401110199645764e+01 6.1374588192790585e+00 0 0 0
1963 1 9.9674370990952088e-01 4.1047205390790440e+00 1.9137598674883371e+01 6.1006205749736910e+00 0 0 0
1690 2 -6.0298799175542273e-01 2.7637875362324364e+00 2.0499692251759861e+01 6.1673282731749808e+00 0 0 0
1790 2 -7.1487518708627984e-01 2.7613114145518458e+00 1.7921450793282034e+01 6.3814069678841943e+00 0 0 0
1765 2 -6.3698820677864953e-01 1.3078545892331361e+00 1.9414739968927112e+01 8.0567392185098754e+00 0 0 0
1710 2 -6.1654520990601236e-01 3.8009674477059843e+00 1.9143814385537375e+01 8.1009521789363443e+00 0 0 0
1488 2 -6.7135915964819748e-01 1.3853153846199509e+00 1.6262074295659136e+01 8.8237621855718604e+00 0 0 0
1213 1 8.6500005957731529e-01 2.7598911403223965e+00 1.7688002390081916e+01 8.3388492117622928e+00 0 0 0
1262 1 9.3361089687303800e-01 2.6840263995039155e+00 2.0772222486405877e+01 8.4451165898783422e+00 0 0 0
1863 2 -6.6955523348832779e-01 6.2016101524189882e+00 1.8180362220507508e+01 6.3082810069406383e+00 0 0 0
957 1 7.0672480553753059e-01 1.8325637813265232e+01 1.6311288016007968e+01 7.1050124878543794e+00 0 0 0
51 1 8.6205048464459344e-01 6.1320570858276460e+00 1.9070928279860009e+01 1.0406796015927275e+01 0 0 0
944 1 7.4578490803961095e-01 1.1941745421281679e+01 1.5912547432733925e+01 7.9669834345508281e+00 0 0 0
574 2 -7.0443826936609111e-01 1.0643709501777858e+01 1.6039855803981705e+01 8.9713184302275089e+00 0 0 0
491 2 -7.1251964315294647e-01 7.7256436688953940e+00 1.6321392307253490e+01 8.7553228434138983e+00 0 0 0
18 2 -7.4800734994314422e-01 8.6927995146110266e+00 2.0247261027462553e+01 6.3736842148359862e+00 0 0 0