LAMMPS (7 Aug 2019)
# Fe3O4 -- [0, 1, 0][1, 0, 0] grain boundary
# atom types: 1 -- Fe, 2 -- O
# units real: mass = g/mole; dist = Angstroms; time = fs;
# energy = Kcal/mole = 4184 J/mole

units 		real
dimension	3
atom_style	charge
neigh_modify	delay 5
neighbor	0.3 bin

#---------------------Geometry of the model------------------

variable a equal 6.1602
variable b equal 6.1877
variable c equal 6.1868

region box block 0 $(3*v_c) 0 42.4 0 40 units box
region box block 0 18.560400000000001342 0 42.4 0 40 units box
boundary	p p s
create_box 2 box
Created orthogonal box = (0 0 0) to (18.5604 42.4 40)
  1 by 2 by 1 MPI processor grid

read_data	coolannealedboundary.data	add append
  orthogonal box = (0 0 -0.004) to (18.5604 42.4 42.0202)
  1 by 2 by 1 MPI processor grid
  reading atoms ...
  2577 atoms
  reading velocities ...
  2577 velocities
  read_data CPU = 0.026951 secs

region boundary block -1000 1000 -1000 1000 17 23
group boundary region boundary
289 atoms in group boundary

#---------------Define potential and run minimization

pair_style	reax/c	NULL
pair_coeff	* *	ffield.reax.Fe_O_C_H Fe O
Reading potential file ffield.reax.Fe_O_C_H with DATE: 2011-02-18
fix             2 all qeq/reax 1 0.0 10.0 1e-6 reax/c

compute	  	T all temp
fix 		1 all nve
timestep 	1.0
thermo		10
thermo_style 	custom step pe c_T

velocity	all create 900 239239239
fix 		3 all temp/rescale 10 900 900 1 1.0

write_data initial900.10
Neighbor list info ...
  update every 1 steps, delay 5 steps, check yes
  max neighbors/atom: 2000, page size: 100000
  master list distance cutoff = 10.3
  ghost atom cutoff = 10.3
  binsize = 5.15, bins = 4 9 9
  2 neighbor lists, perpetual/occasional/extra = 2 0 0
  (1) pair reax/c, perpetual
      attributes: half, newton off, ghost
      pair build: half/bin/newtoff/ghost
      stencil: half/ghost/bin/3d/newtoff
      bin: standard
  (2) fix qeq/reax, perpetual, copy from (1)
      attributes: half, newton off, ghost
      pair build: copy
      stencil: none
      bin: none

run 10000
Per MPI rank memory allocation (min/avg/max) = 116.6 | 116.6 | 116.7 Mbytes
Step PotEng c_T 
       0   -299750.06          900 
      10   -298141.39          900 
      20   -295195.39          900 
      30   -292671.28          900 
      40   -291741.06          900 
      50   -291493.77          900 
      60   -291227.09          900 
      70   -291114.52          900 
      80   -291281.27          900 
      90   -291439.92          900 
     100   -291576.89          900 
     110   -291696.01          900 
     120   -291904.77          900 
     130   -292288.88          900 
     140   -292602.85          900 
     150   -292694.82          900 
     160   -292692.27    899.74593 
     170   -292632.75          900 
     180   -292592.72          900 
     190   -292617.62          900 
     200    -292659.3          900 
     210   -292723.21          900 
     220   -292731.61          900 
     230   -292720.48          900 
     240   -292709.61          900 
     250   -292652.57          900 
     260   -292550.69          900 
     270   -292608.78          900 
     280    -292798.6          900 
     290   -292923.25          900 
     300   -292930.24    900.90979 
     310   -292878.44          900 
     320   -292875.17    899.55881 
     330   -292930.21          900 
     340   -292944.04          900 
     350   -292924.65          900 
     360   -292868.13          900 
     370    -292812.6          900 
     380   -292775.22          900 
     390   -292718.37          900 
     400   -292749.75          900 
     410   -292711.31          900 
     420    -292717.1    900.74468 
     430    -292705.3    899.31003 
     440   -292833.42          900 
     450   -292886.06          900 
     460   -292928.56          900 
     470   -292937.14          900 
     480   -292936.95     899.8923 
     490   -292890.63          900 
     500   -292880.23          900 
     510   -292877.99    899.77288 
     520   -292844.13          900 
     530   -292836.66    899.10409 
     540   -292728.03          900 
     550    -292637.7          900 
     560   -292659.95          900 
     570   -292679.39          900 
     580   -292734.15          900 
     590    -292838.3          900 
     600   -292887.02          900 
     610   -292882.08    899.36286 
     620   -292823.91          900 
     630   -292830.53    900.90588 
     640   -292946.63          900 
     650   -292911.79          900 
     660   -292815.61          900 
     670   -292726.53          900 
     680   -292706.99          900 
     690   -292665.61          900 
     700    -292694.6          900 
     710   -292751.55          900 
     720   -292807.95          900 
     730   -292848.78          900 
     740   -292870.97          900 
     750   -292747.36          900 
     760   -292769.03          900 
     770   -292828.26          900 
     780   -292812.96          900 
     790   -292754.95          900 
     800   -292821.63          900 
     810    -292772.3          900 
     820   -292720.61          900 
     830   -292771.73          900 
     840   -292978.95          900 
     850   -293068.28          900 
     860    -293075.6    900.96127 
     870   -293052.08          900 
     880   -293077.49          900 
     890   -293008.72          900 
     900   -292947.88          900 
     910    -292836.4          900 
     920   -292686.98          900 
     930    -292691.6    900.56818 
     940   -292727.68          900 
     950   -292719.91          900 
     960   -292707.37          900 
     970   -292804.62          900 
     980   -292877.71          900 
     990   -292910.91          900 
    1000   -292847.61          900 
    1010   -292838.19          900 
    1020   -292834.14    899.74807 
    1030      -292885          900 
    1040   -292950.44          900 
    1050   -292913.42          900 
    1060   -292848.76          900 
    1070    -292800.3          900 
    1080   -292728.48          900 
    1090    -292783.2          900 
    1100   -292809.75          900 
    1110   -292831.04          900 
    1120   -292881.39          900 
    1130   -292922.29          900 
    1140   -292950.62          900 
    1150    -292972.9          900 
    1160   -292985.17          900 
    1170   -292940.82          900 
    1180   -292934.28    899.26828 
    1190    -292992.6          900 
    1200   -293090.16          900 
    1210   -293168.91          900 
    1220   -293166.65    899.65686 
    1230   -293069.02          900 
    1240    -292948.5          900 
    1250   -292939.16          900 
    1260   -292886.78          900 
    1270   -292898.93          900 
    1280   -292859.81          900 
    1290    -292834.9          900 
    1300    -292936.7          900 
    1310   -293092.15          900 
    1320   -293098.74    900.80849 
    1330   -293070.19          900 
    1340   -293039.09          900 
    1350   -293013.31          900 
    1360   -293017.35    900.42308 
    1370   -293037.21          900 
    1380   -293035.15    899.80011 
    1390   -293072.59          900 
    1400   -293089.85          900 
    1410   -293106.29          900 
    1420   -293040.79          900 
    1430   -293152.17          900 
    1440    -293103.7          900 
    1450   -293049.84          900 
    1460   -292993.54          900 
    1470   -292970.26          900 
    1480    -292982.2          900 
    1490   -292981.61     899.8351 
    1500   -292991.89          900 
    1510   -292996.25    900.62541 
    1520   -292943.72          900 
    1530   -293035.65          900 
    1540   -293109.43          900 
    1550   -293174.59          900 
    1560   -293143.65          900 
    1570   -293058.79          900 
    1580   -293030.09          900 
    1590   -293047.39          900 
    1600    -293015.6          900 
    1610   -292956.11          900 
    1620   -292883.01          900 
    1630   -292861.01          900 
    1640   -292971.38          900 
    1650   -293012.64          900 
    1660   -292980.34          900 
    1670   -292997.02          900 
    1680   -293086.96          900 
    1690   -293227.13          900 
    1700   -293274.12          900 
    1710   -293221.84          900 
    1720   -293184.57          900 
    1730   -293156.55          900 
    1740   -293084.44          900 
    1750    -293017.9          900 
    1760   -293044.25          900 
    1770   -293085.25          900 
    1780   -293090.73      900.777 
    1790   -293012.95          900 
    1800   -292977.56          900 
    1810   -292888.66          900 
    1820   -292936.95          900 
    1830    -293003.3          900 
    1840   -293085.42          900 
    1850   -293099.77          900 
    1860   -293081.66          900 
    1870   -293220.93          900 
    1880   -293320.24          900 
    1890   -293351.23          900 
    1900   -293232.18          900 
    1910   -293160.18          900 
    1920   -293134.23          900 
    1930   -293052.34          900 
    1940   -293107.07          900 
    1950   -293254.52          900 
    1960   -293202.81          900 
    1970   -293155.14          900 
    1980   -293202.92          900 
    1990   -293214.99          900 
    2000   -293162.58          900 
    2010   -293144.11          900 
    2020   -293125.97          900 
    2030   -293135.27          900 
    2040   -293199.48          900 
    2050   -293275.72          900 
    2060   -293206.05          900 
    2070   -293151.52          900 
    2080    -293125.4          900 
    2090   -293170.46          900 
    2100    -293198.3          900 
    2110   -293237.75          900 
    2120   -293217.58          900 
    2130   -293210.55    899.04988 
    2140   -293204.43          900 
    2150    -293270.7          900 
    2160   -293249.32          900 
    2170   -293266.74          900 
    2180   -293297.49          900 
    2190   -293264.69          900 
    2200   -293236.98          900 
    2210   -293219.87          900 
    2220   -293166.36          900 
    2230   -293254.18          900 
    2240    -293323.9          900 
    2250   -293267.84          900 
    2260   -293176.07          900 
    2270   -293130.91          900 
    2280   -293152.57          900 
    2290    -293253.3          900 
    2300    -293266.7          900 
    2310   -293257.31          900 
    2320    -293344.6          900 
    2330   -293364.65          900 
    2340   -293241.27          900 
    2350   -293210.95          900 
    2360   -293307.41          900 
    2370   -293304.77    899.68191 
    2380    -293290.6          900 
    2390   -293348.15          900 
    2400   -293307.34          900 
    2410    -293171.4          900 
    2420   -293062.64          900 
    2430   -293148.58          900 
    2440   -293218.94          900 
    2450   -293196.82          900 
    2460   -293268.11          900 
    2470   -293290.37          900 
    2480   -293282.28          900 
    2490   -293299.25          900 
    2500   -293272.07          900 
    2510    -293385.3          900 
    2520   -293447.92          900 
    2530   -293334.12          900 
    2540   -293136.16          900 
    2550   -293153.81          900 
    2560   -293355.33          900 
    2570    -293384.6          900 
    2580   -293323.78          900 
    2590   -293259.52          900 
    2600   -293233.28          900 
    2610   -293238.79    900.78641 
    2620   -293215.22          900 
    2630   -293230.61          900 
    2640   -293344.78          900 
    2650   -293387.81          900 
    2660   -293357.17          900 
    2670   -293367.12          900 
    2680   -293418.96          900 
    2690   -293340.24          900 
    2700   -293285.97          900 
    2710   -293248.26          900 
    2720   -293262.82          900 
    2730   -293373.54          900 
    2740   -293422.96          900 
    2750   -293389.19          900 
    2760    -293309.4          900 
    2770   -293248.84          900 
    2780   -293392.12          900 
    2790   -293435.72          900 
    2800   -293410.29          900 
    2810   -293318.08          900 
    2820   -293295.74          900 
    2830    -293380.4          900 
    2840    -293372.2    899.07289 
    2850   -293277.96          900 
    2860   -293292.27          900 
    2870   -293354.33          900 
    2880   -293455.28          900 
    2890   -293488.96          900 
    2900   -293448.61          900 
    2910   -293464.19          900 
    2920   -293544.52          900 
    2930   -293501.53          900 
    2940   -293465.07          900 
    2950   -293485.38          900 
    2960   -293497.26          900 
    2970    -293442.2          900 
    2980   -293335.32          900 
    2990   -293315.89          900 
    3000   -293269.84          900 
    3010   -293202.93          900 
    3020   -293231.89          900 
    3030   -293252.18          900 
    3040   -293440.69          900 
    3050   -293501.38          900 
    3060   -293411.53          900 
    3070   -293484.43          900 
    3080   -293505.36          900 
    3090   -293452.56          900 
    3100   -293434.39          900 
    3110   -293411.28          900 
    3120   -293421.42          900 
    3130   -293433.44          900 
    3140   -293372.32          900 
    3150    -293432.1          900 
    3160   -293446.29          900 
    3170   -293453.54    900.89509 
    3180   -293462.97          900 
    3190   -293369.81          900 
    3200   -293276.84          900 
    3210   -293149.32          900 
    3220   -293161.81          900 
    3230   -293234.42          900 
    3240   -293358.59          900 
    3250   -293430.16          900 
    3260   -293429.51    899.85105 
    3270   -293446.28          900 
    3280   -293502.14          900 
    3290   -293490.63          900 
    3300   -293498.11          900 
    3310   -293454.13          900 
    3320   -293471.21          900 
    3330   -293404.64          900 
    3340   -293360.31          900 
    3350   -293354.73    899.26934 
    3360    -293386.7          900 
    3370    -293487.7          900 
    3380    -293535.7          900 
    3390   -293436.71          900 
    3400   -293443.97          900 
    3410   -293552.02          900 
    3420   -293656.86          900 
    3430   -293556.21          900 
    3440   -293435.41          900 
    3450      -293369          900 
    3460   -293388.03          900 
    3470    -293358.6          900 
    3480   -293229.61          900 
    3490   -293195.16          900 
    3500    -293310.4          900 
    3510    -293426.8          900 
    3520   -293404.58          900 
    3530    -293362.6          900 
    3540   -293386.34          900 
    3550   -293431.27          900 
    3560   -293370.29          900 
    3570   -293312.29          900 
    3580   -293413.89          900 
    3590   -293555.38          900 
    3600   -293630.77          900 
    3610   -293480.88          900 
    3620   -293301.72          900 
    3630   -293266.23          900 
    3640   -293281.27          900 
    3650   -293259.34          900 
    3660   -293300.49          900 
    3670   -293350.65          900 
    3680   -293415.49          900 
    3690   -293518.05          900 
    3700   -293531.67          900 
    3710   -293525.91    899.23248 
    3720   -293577.25          900 
    3730   -293566.93          900 
    3740   -293517.69          900 
    3750   -293507.73          900 
    3760   -293606.83          900 
    3770   -293613.47    900.72918 
    3780   -293496.19          900 
    3790   -293523.87          900 
    3800   -293570.87          900 
    3810   -293583.44          900 
    3820   -293523.77          900 
    3830   -293526.39    900.26311 
    3840   -293532.02    900.92303 
    3850   -293452.55          900 
    3860   -293412.73          900 
    3870   -293361.69          900 
    3880   -293419.82          900 
    3890   -293481.74          900 
    3900   -293550.17          900 
    3910   -293556.13    900.82803 
    3920   -293480.01          900 
    3930   -293401.96          900 
    3940   -293348.56          900 
    3950   -293280.04          900 
    3960   -293274.45     899.3761 
    3970   -293327.45          900 
    3980   -293519.76          900 
    3990   -293497.54          900 
    4000   -293438.89          900 
    4010   -293368.39          900 
    4020    -293336.4          900 
    4030    -293377.3          900 
    4040   -293517.84          900 
    4050   -293618.95          900 
    4060   -293635.43          900 
    4070   -293637.86    900.32447 
    4080   -293537.16          900 
    4090   -293512.22          900 
    4100   -293583.06          900 
    4110    -293569.3          900 
    4120   -293489.44          900 
    4130   -293405.61          900 
    4140   -293376.52          900 
    4150   -293424.78          900 
    4160   -293460.95          900 
    4170   -293457.16    899.58489 
    4180   -293536.08          900 
    4190   -293615.42          900 
    4200   -293667.19          900 
    4210   -293608.13          900 
    4220   -293570.32          900 
    4230   -293559.53          900 
    4240   -293544.16          900 
    4250   -293550.48    900.74503 
    4260   -293485.82          900 
    4270   -293405.95          900 
    4280   -293346.07          900 
    4290   -293423.72          900 
    4300   -293493.48          900 
    4310   -293491.56    899.78406 
    4320   -293445.27          900 
    4330   -293488.54          900 
    4340   -293543.41          900 
    4350   -293605.04          900 
    4360   -293632.54          900 
    4370   -293630.94    899.79746 
    4380    -293613.4          900 
    4390   -293566.55          900 
    4400   -293651.78          900 
    4410   -293623.29          900 
    4420   -293561.65          900 
    4430   -293475.97          900 
    4440   -293558.74          900 
    4450   -293536.36          900 
    4460   -293541.45    900.77199 
    4470    -293569.8          900 
    4480   -293614.34          900 
    4490   -293699.31          900 
    4500   -293685.69          900 
    4510   -293656.38          900 
    4520   -293617.99          900 
    4530   -293591.05          900 
    4540    -293563.2          900 
    4550   -293495.32          900 
    4560   -293543.15          900 
    4570   -293505.55          900 
    4580   -293426.75          900 
    4590   -293486.27          900 
    4600   -293591.27          900 
    4610   -293632.52          900 
    4620   -293560.32          900 
    4630    -293584.4          900 
    4640   -293614.92          900 
    4650    -293629.7          900 
    4660   -293550.24          900 
    4670   -293605.29          900 
    4680   -293575.21          900 
    4690   -293593.66          900 
    4700   -293614.28          900 
    4710    -293585.4          900 
    4720   -293569.84          900 
    4730   -293543.88          900 
    4740   -293586.01          900 
    4750   -293560.47          900 
    4760   -293525.37          900 
    4770   -293503.94          900 
    4780   -293516.67          900 
    4790   -293514.97    899.83708 
    4800   -293573.04          900 
    4810   -293572.68    899.81107 
    4820    -293627.4          900 
    4830   -293602.37          900 
    4840   -293600.14    899.82957 
    4850   -293604.74    900.45798 
    4860   -293595.45    899.24276 
    4870   -293534.57          900 
    4880   -293512.82          900 
    4890   -293520.16    900.96369 
    4900   -293569.87          900 
    4910   -293585.83          900 
    4920   -293525.54          900 
    4930   -293520.53    899.43829 
    4940   -293559.62          900 
    4950   -293492.23          900 
    4960   -293461.82          900 
    4970   -293425.29          900 
    4980   -293476.07          900 
    4990   -293412.78          900 
    5000   -293379.74          900 
    5010   -293436.35          900 
    5020    -293559.4          900 
    5030   -293663.55          900 
    5040   -293649.58          900 
    5050   -293581.09          900 
    5060   -293539.63          900 
    5070   -293547.77          900 
    5080   -293617.11          900 
    5090   -293648.22          900 
    5100   -293634.94          900 
    5110   -293692.72          900 
    5120   -293758.02          900 
    5130   -293783.33          900 
    5140    -293615.2          900 
    5150   -293483.04          900 
    5160   -293384.85          900 
    5170   -293302.51          900 
    5180   -293258.47          900 
    5190   -293344.03          900 
    5200   -293405.67          900 
    5210   -293461.39          900 
    5220   -293479.26          900 
    5230   -293528.11          900 
    5240   -293564.22          900 
    5250   -293522.77          900 
    5260   -293507.27          900 
    5270   -293495.79          900 
    5280   -293577.53          900 
    5290   -293643.77          900 
    5300   -293779.65          900 
    5310   -293798.69          900 
    5320   -293669.11          900 
    5330   -293553.66          900 
    5340   -293447.19          900 
    5350   -293401.56          900 
    5360   -293470.43          900 
    5370   -293563.58          900 
    5380   -293642.06          900 
    5390   -293636.99    899.28283 
    5400   -293589.52          900 
    5410   -293543.94          900 
    5420   -293456.28          900 
    5430    -293479.7          900 
    5440   -293559.68          900 
    5450   -293548.72          900 
    5460   -293532.79          900 
    5470   -293618.05          900 
    5480   -293632.78          900 
    5490   -293547.18          900 
    5500   -293388.95          900 
    5510   -293483.77          900 
    5520   -293586.71          900 
    5530   -293557.44          900 
    5540   -293582.44          900 
    5550   -293675.77          900 
    5560   -293729.95          900 
    5570   -293580.04          900 
    5580   -293494.44          900 
    5590   -293595.82          900 
    5600   -293664.98          900 
    5610   -293621.67          900 
    5620   -293616.67    899.32163 
    5630   -293645.29          900 
    5640   -293734.64          900 
    5650   -293767.86          900 
    5660    -293734.1          900 
    5670   -293613.06          900 
    5680    -293573.2          900 
    5690   -293610.91          900 
    5700   -293687.65          900 
    5710   -293668.93          900 
    5720   -293550.59          900 
    5730    -293565.6          900 
    5740   -293557.65          900 
    5750   -293639.33          900 
    5760   -293758.11          900 
    5770   -293819.37          900 
    5780   -293863.72          900 
    5790   -293829.92          900 
    5800   -293821.23          900 
    5810   -293885.33          900 
    5820    -293854.2          900 
    5830   -293821.41          900 
    5840   -293797.49          900 
    5850   -293708.61          900 
    5860   -293782.11          900 
    5870   -293759.23          900 
    5880   -293700.46          900 
    5890   -293656.65          900 
    5900   -293691.35          900 
    5910   -293690.12    899.90178 
    5920   -293742.15          900 
    5930   -293769.82          900 
    5940   -293711.44          900 
    5950   -293665.52          900 
    5960   -293597.36          900 
    5970   -293620.24          900 
    5980   -293676.35          900 
    5990   -293717.68          900 
    6000   -293626.32          900 
    6010    -293561.7          900 
    6020   -293614.78          900 
    6030   -293766.44          900 
    6040   -293885.98          900 
    6050   -293946.38          900 
    6060   -293918.26          900 
    6070    -293898.3          900 
    6080   -293779.92          900 
    6090   -293578.05          900 
    6100   -293617.62          900 
    6110   -293581.91          900 
    6120   -293609.34          900 
    6130   -293619.76          900 
    6140   -293720.81          900 
    6150   -293738.32          900 
    6160    -293751.8          900 
    6170   -293812.11          900 
    6180   -293848.48          900 
    6190   -293887.88          900 
    6200   -293927.19          900 
    6210   -293917.46          900 
    6220   -293811.71          900 
    6230   -293788.99          900 
    6240   -293846.77          900 
    6250   -293866.46          900 
    6260   -293802.13          900 
    6270   -293767.29          900 
    6280   -293643.94          900 
    6290      -293638    899.16281 
    6300   -293671.25          900 
    6310   -293828.48          900 
    6320    -293876.5          900 
    6330    -293844.9          900 
    6340    -293781.8          900 
    6350    -293769.1          900 
    6360   -293742.37          900 
    6370   -293700.36          900 
    6380   -293730.67          900 
    6390   -293774.08          900 
    6400   -293787.65          900 
    6410    -293851.9          900 
    6420   -293871.67          900 
    6430   -293794.12          900 
    6440   -293798.39    900.51176 
    6450   -293772.14          900 
    6460   -293751.29          900 
    6470   -293750.09    899.95061 
    6480   -293772.03          900 
    6490   -293829.81          900 
    6500    -293918.4          900 
    6510   -293877.31          900 
    6520   -293870.62    899.10411 
    6530   -293870.88    899.05694 
    6540   -293910.42          900 
    6550   -293808.22          900 
    6560   -293790.93          900 
    6570   -293735.85          900 
    6580   -293767.22          900 
    6590   -293793.76          900 
    6600   -293877.36          900 
    6610   -293897.62          900 
    6620   -293828.75          900 
    6630   -293785.36          900 
    6640   -293817.22          900 
    6650   -293879.97          900 
    6660   -293938.58          900 
    6670   -293975.68          900 
    6680   -293914.39          900 
    6690   -293904.11          900 
    6700   -293881.74          900 
    6710   -293879.98    899.75203 
    6720   -293802.04          900 
    6730   -293756.61          900 
    6740   -293716.51          900 
    6750   -293743.92          900 
    6760    -293746.6    900.35526 
    6770   -293785.34          900 
    6780   -293758.29          900 
    6790   -293835.77          900 
    6800   -293928.79          900 
    6810   -293854.44          900 
    6820   -293866.25          900 
    6830   -293935.93          900 
    6840   -293894.19          900 
    6850   -293928.24          900 
    6860   -293986.41          900 
    6870   -293988.22    900.20717 
    6880   -293904.68          900 
    6890   -293956.59          900 
    6900   -293996.41          900 
    6910   -293907.23          900 
    6920   -293754.06          900 
    6930   -293798.96          900 
    6940   -293931.13          900 
    6950    -294053.5          900 
    6960    -294025.1          900 
    6970   -293951.96          900 
    6980   -293843.59          900 
    6990   -293865.34          900 
    7000   -293916.53          900 
    7010   -293960.37          900 
    7020   -293932.23          900 
    7030   -293909.92          900 
    7040   -293894.62          900 
    7050   -293825.51          900 
    7060   -293817.72    899.11739 
    7070   -293814.63          900 
    7080   -293870.75          900 
    7090    -293876.1    900.58157 
    7100   -293802.11          900 
    7110   -293754.82          900 
    7120   -293834.15          900 
    7130   -294024.87          900 
    7140   -294042.18          900 
    7150   -293947.99          900 
    7160   -293891.93          900 
    7170   -293857.56          900 
    7180   -293846.92          900 
    7190   -293819.67          900 
    7200   -293845.09          900 
    7210   -293798.63          900 
    7220   -293786.18          900 
    7230   -293812.85          900 
    7240   -293895.87          900 
    7250   -293884.26          900 
    7260    -293785.9          900 
    7270   -293716.44          900 
    7280   -293747.15          900 
    7290   -293702.27          900 
    7300   -293723.58          900 
    7310    -293675.7          900 
    7320   -293701.79          900 
    7330   -293726.97          900 
    7340    -293763.9          900 
    7350    -293776.3          900 
    7360   -293714.23          900 
    7370   -293756.89          900 
    7380   -293839.76          900 
    7390   -293909.59          900 
    7400   -293870.12          900 
    7410   -293882.09          900 
    7420   -293834.39          900 
    7430   -293739.45          900 
    7440   -293720.86          900 
    7450   -293776.11          900 
    7460   -293879.61          900 
    7470   -293840.78          900 
    7480   -293762.54          900 
    7490   -293848.25          900 
    7500   -293877.28          900 
    7510   -293807.44          900 
    7520   -293722.96          900 
    7530   -293808.49          900 
    7540   -293865.43          900 
    7550   -293822.24          900 
    7560   -293788.39          900 
    7570   -293808.38          900 
    7580   -293735.01          900 
    7590   -293760.58          900 
    7600   -293743.28          900 
    7610   -293771.76          900 
    7620   -293856.29          900 
    7630   -293901.13          900 
    7640   -293792.16          900 
    7650   -293686.81          900 
    7660   -293626.31          900 
    7670   -293635.62          900 
    7680   -293780.69          900 
    7690   -293787.82    900.84934 
    7700   -293727.79          900 
    7710   -293788.64          900 
    7720   -293783.16     899.3485 
    7730    -293803.1          900 
    7740   -293774.46          900 
    7750   -293799.33          900 
    7760   -293784.82          900 
    7770   -293842.26          900 
    7780   -293909.65          900 
    7790   -293913.15    900.43859 
    7800    -293895.4          900 
    7810   -293864.59          900 
    7820   -293898.27          900 
    7830   -293881.22          900 
    7840   -293907.05          900 
    7850   -293839.21          900 
    7860   -293853.46          900 
    7870   -293837.74          900 
    7880   -293815.27          900 
    7890    -293831.2          900 
    7900   -293757.37          900 
    7910   -293791.16          900 
    7920   -293894.98          900 
    7930    -293909.1          900 
    7940    -293866.4          900 
    7950   -293811.25          900 
    7960   -293796.71          900 
    7970   -293747.93          900 
    7980   -293816.77          900 
    7990   -293909.59          900 
    8000   -293896.65          900 
    8010   -293912.08          900 
    8020    -293966.1          900 
    8030   -294032.81          900 
    8040   -293997.64          900 
    8050   -293914.37          900 
    8060   -293851.64          900 
    8070   -293875.58          900 
    8080   -293848.92          900 
    8090   -293886.45          900 
    8100   -293878.88    899.05056 
    8110   -294026.98          900 
    8120   -294022.35    899.40251 
    8130   -293934.23          900 
    8140   -293841.85          900 
    8150   -293849.65    900.98416 
    8160   -293907.05          900 
    8170   -293883.32          900 
    8180   -293860.95          900 
    8190   -293786.72          900 
    8200   -293806.71          900 
    8210   -293848.27          900 
    8220   -293904.11          900 
    8230   -293896.42          900 
    8240    -293911.4          900 
    8250    -293924.8          900 
    8260   -293882.68          900 
    8270   -293887.65    900.61244 
    8280   -293824.47          900 
    8290    -293832.7          900 
    8300   -293893.23          900 
    8310   -293909.73          900 
    8320   -293915.16    900.75772 
    8330   -293971.82          900 
    8340   -293925.01          900 
    8350   -293892.57          900 
    8360    -293811.1          900 
    8370   -293770.82          900 
    8380   -293721.19          900 
    8390   -293805.09          900 
    8400   -293953.03          900 
    8410   -294021.98          900 
    8420   -294031.23          900 
    8430   -293955.34          900 
    8440   -293892.72          900 
    8450   -293851.49          900 
    8460   -293878.63          900 
    8470   -293926.65          900 
    8480   -293841.12          900 
    8490   -293835.29    899.18325 
    8500   -293963.28          900 
    8510   -293946.92          900 
    8520   -293963.28          900 
    8530   -293893.03          900 
    8540   -293918.43          900 
    8550   -293959.57          900 
    8560    -293945.5          900 
    8570   -293948.84    900.47172 
    8580   -293935.12          900 
    8590   -293859.11          900 
    8600   -293831.06          900 
    8610   -293810.93          900 
    8620   -293885.42          900 
    8630   -293939.68          900 
    8640   -293926.66          900 
    8650   -293842.27          900 
    8660   -293857.81          900 
    8670   -293904.18          900 
    8680   -293893.86          900 
    8690   -293807.81          900 
    8700   -293787.63          900 
    8710    -293901.6          900 
    8720   -293956.12          900 
    8730    -293967.2          900 
    8740      -293966    899.72099 
    8750   -293982.22          900 
    8760   -293912.47          900 
    8770   -293903.89          900 
    8780   -293960.37          900 
    8790   -294013.87          900 
    8800   -294042.24          900 
    8810   -294031.87          900 
    8820   -294066.08          900 
    8830   -294079.64          900 
    8840   -294080.83    900.18353 
    8850   -294048.45          900 
    8860   -293992.48          900 
    8870   -293869.35          900 
    8880   -293800.39          900 
    8890   -293889.33          900 
    8900   -294028.92          900 
    8910   -293968.83          900 
    8920   -293861.69          900 
    8930   -293952.72          900 
    8940    -294002.3          900 
    8950   -294057.01          900 
    8960   -294055.86    900.04707 
    8970   -294093.54          900 
    8980    -294069.3          900 
    8990   -294041.04          900 
    9000    -294007.9          900 
    9010   -293981.69          900 
    9020      -293890          900 
    9030   -293892.83    900.36604 
    9040   -293857.48          900 
    9050   -293906.71          900 
    9060   -294069.77          900 
    9070   -294095.02          900 
    9080   -294013.83          900 
    9090   -293938.43          900 
    9100   -293923.42          900 
    9110   -293820.53          900 
    9120   -293740.33          900 
    9130   -293807.22          900 
    9140   -293912.01          900 
    9150   -294010.24          900 
    9160   -294082.77          900 
    9170   -294061.04          900 
    9180   -293975.47          900 
    9190   -293821.02          900 
    9200   -293774.61          900 
    9210    -293721.2          900 
    9220   -293871.13          900 
    9230   -293918.68          900 
    9240   -293998.23          900 
    9250   -294067.95          900 
    9260    -294209.5          900 
    9270   -294275.16          900 
    9280   -294244.23          900 
    9290    -294135.6          900 
    9300   -294112.91          900 
    9310   -293985.44          900 
    9320   -293882.74          900 
    9330   -293871.33          900 
    9340   -293930.63          900 
    9350   -294005.36          900 
    9360   -293953.28          900 
    9370   -293873.05          900 
    9380   -293926.57          900 
    9390   -293949.93          900 
    9400    -294045.2          900 
    9410   -294015.74          900 
    9420   -293972.13          900 
    9430      -293950          900 
    9440   -293900.04          900 
    9450   -293863.31          900 
    9460   -293912.12          900 
    9470   -293989.77          900 
    9480   -294037.86          900 
    9490   -294047.88          900 
    9500   -293975.23          900 
    9510    -293971.5    899.48616 
    9520   -293992.12          900 
    9530   -293984.26          900 
    9540   -293950.39          900 
    9550    -293884.9          900 
    9560   -293879.31    899.41453 
    9570   -293927.62          900 
    9580   -293901.58          900 
    9590   -293878.43          900 
    9600   -293894.82          900 
    9610    -293884.2          900 
    9620   -293864.35          900 
    9630   -293917.59          900 
    9640   -293930.81          900 
    9650   -294114.15          900 
    9660   -294164.19          900 
    9670    -294106.7          900 
    9680   -294010.23          900 
    9690   -293976.84          900 
    9700   -294092.66          900 
    9710   -294105.51          900 
    9720   -294033.73          900 
    9730   -294086.05          900 
    9740   -294071.77          900 
    9750   -293972.75          900 
    9760   -293836.89          900 
    9770   -293810.33          900 
    9780   -293796.79          900 
    9790   -293894.75          900 
    9800   -294002.95          900 
    9810   -294092.77          900 
    9820   -294062.38          900 
    9830   -293944.09          900 
    9840    -293908.8          900 
    9850   -293973.86          900 
    9860   -293915.56          900 
    9870   -293895.88          900 
    9880   -293989.17          900 
    9890   -293996.21    900.88744 
    9900   -294065.39          900 
    9910   -294073.16    900.96208 
    9920   -294061.88    899.52409 
    9930   -294008.63          900 
    9940   -294070.43          900 
    9950    -294192.9          900 
    9960   -294163.66          900 
    9970   -294173.68          900 
    9980   -294169.06    899.40069 
    9990   -294153.41          900 
   10000   -294168.66          900 
Loop time of 6939.66 on 2 procs for 10000 steps with 2577 atoms

Performance: 0.125 ns/day, 192.768 hours/ns, 1.441 timesteps/s
90.2% CPU use with 2 MPI tasks x no OpenMP threads

MPI task timing breakdown:
Section |  min time  |  avg time  |  max time  |%varavg| %total
---------------------------------------------------------------
Pair    | 5651       | 5791.9     | 5932.9     | 185.2 | 83.46
Neigh   | 114.68     | 116.82     | 118.95     |  19.8 |  1.68
Comm    | 55.849     | 196.88     | 337.91     |1005.1 |  2.84
Output  | 0.053113   | 0.19427    | 0.33544    |  32.0 |  0.00
Modify  | 831.01     | 833.19     | 835.38     |   7.6 | 12.01
Other   |            | 0.6603     |            |       |  0.01

Nlocal:    1288.5 ave 1291 max 1286 min
Histogram: 1 0 0 0 0 0 0 0 0 1
Nghost:    4081.5 ave 4090 max 4073 min
Histogram: 1 0 0 0 0 0 0 0 0 1
Neighs:    293617 ave 294510 max 292724 min
Histogram: 1 0 0 0 0 0 0 0 0 1

Total # of neighbors = 587234
Ave neighs/atom = 227.875
Neighbor list builds = 1747
Dangerous builds = 507

write_data final900.10














Please see the log.cite file for references relevant to this simulation

Total wall time: 1:55:40
