LAMMPS (7 Aug 2019)
Created orthogonal box = (0 0 0) to (18.5604 42.4 40)
  2 by 4 by 4 MPI processor grid
Reading data file ...
  orthogonal box = (0 0 -0.171776) to (18.5604 42.4 41.6292)
  2 by 4 by 4 MPI processor grid
  reading atoms ...
  2577 atoms
  reading velocities ...
  2577 velocities
  read_data CPU = 0.0109051 secs
719 atoms in group boundary
1149 atoms in group Fe
1428 atoms in group O
312 atoms in group Feb
407 atoms in group Ob
Reading potential file ffield.reax.Fe_O_C_H with DATE: 2011-02-18
Neighbor list info ...
  update every 1 steps, delay 5 steps, check yes
  max neighbors/atom: 2000, page size: 100000
  master list distance cutoff = 10.3
  ghost atom cutoff = 10.3
  binsize = 5.15, bins = 4 9 9
  2 neighbor lists, perpetual/occasional/extra = 2 0 0
  (1) pair reax/c, perpetual
      attributes: half, newton off, ghost
      pair build: half/bin/newtoff/ghost
      stencil: half/ghost/bin/3d/newtoff
      bin: standard
  (2) fix qeq/reax, perpetual, copy from (1)
      attributes: half, newton off, ghost
      pair build: copy
      stencil: none
      bin: none
Setting up Verlet run ...
  Unit style    : real
  Current step  : 0
  Time step     : 0.2
Per MPI rank memory allocation (min/avg/max) = 36.41 | 45.46 | 53.73 Mbytes
Step PotEng c_T c_avesqdispFe1 c_avesqdispFe2 c_avesqdispFe3 c_avesqdispFe4 c_avesqdispO1 c_avesqdispO2 c_avesqdispO3 c_avesqdispO4 
       0   -294261.51         1100            0            0            0            0            0            0            0            0 
      10   -294245.48         1100 6.636388e-05 7.2846153e-05 6.8804615e-05 0.00020801465 0.00022535247 0.0002234431 0.0002350045 0.00068380006 
      20   -294201.25         1100 0.0002658766 0.00029259911 0.00027573355 0.00083420926 0.00089217723 0.00089043107 0.00094053959 0.0027231479 
      30   -294151.64         1100 0.00059894927 0.00066089362 0.00062144804 0.0018812909 0.0019818293 0.0019932161 0.0021112234 0.0060862688 
      40    -294098.6         1100 0.0010654568 0.0011783627 0.0011173313 0.0033611508 0.0034695428 0.0035181078 0.0037326876  0.010720338 
      50   -294047.88         1100 0.0016647361 0.0018444024 0.0017398479 0.0052489864 0.0053257467  0.005445125 0.0057804653  0.016551337 
      60   -294000.45         1100 0.0023949464 0.0026570264 0.0025040204 0.0075559932 0.0075184853 0.0077467961 0.0082197823  0.023485064 
      70   -293958.56         1100 0.0032536901  0.003612325 0.0033864712  0.010252486  0.010013331  0.010387174  0.011009736  0.031410242 
      80   -293910.32         1100 0.0042381608 0.0047030213 0.0043874069  0.013328589  0.012771433  0.013324008  0.014105507  0.040200948 
      90   -293855.22         1100  0.005345204 0.0059211675 0.0054909333  0.016757305  0.015754755  0.016515099  0.017461547  0.049731401 
     100   -293794.44         1100 0.0065708431 0.0072581463 0.0067084427  0.020537432  0.018929086  0.019921653  0.021030649  0.059881388 
     110   -293735.36         1100  0.007910648 0.0087042516 0.0080061982  0.024621098  0.022263555  0.023501146  0.024765904  0.070530605 
     120    -293684.8         1100 0.0093599924   0.01024951 0.0094140906  0.029023593  0.025723337  0.027209621  0.028620776  0.081553734 
     130    -293646.1         1100  0.010914252  0.011883262  0.010905147  0.033702662  0.029271317   0.03100573  0.032554834   0.09283188 
     140   -293613.16         1100  0.012567212   0.01359439  0.012465373  0.038626975  0.032870866  0.034850514  0.036524048   0.10424543 
     150   -293588.56         1100  0.014310855  0.015373992  0.014094937  0.043779784  0.036485338  0.038707187  0.040481342   0.11567387 
     160   -293564.41         1100   0.01613464  0.017213908  0.015796773  0.049145321  0.040078086  0.042537204   0.04438167   0.12699696 
     170   -293536.75         1100  0.018027515   0.01910525  0.017533009  0.054665774  0.043616533  0.046303481  0.048186564   0.13810658 
     180   -293512.96         1100  0.019977878  0.021038818  0.019310776  0.060327472  0.047069212  0.049969491  0.051860483   0.14889919 
     190   -293487.35         1100  0.021970277  0.023005815  0.021198581  0.066174673  0.050405003   0.05349911  0.055368946   0.15927306 
     200   -293465.67         1100  0.023990427  0.024999521   0.02304011  0.072030058  0.053599466  0.056862486  0.058683059   0.16914501 
     210   -293436.76         1100  0.026027714  0.027011809  0.025067782  0.078107305  0.056635294  0.060040081  0.061775812   0.17845119 
     220   -293407.95         1100  0.028073971  0.029034651  0.026941271  0.084049893   0.05949847  0.063025168   0.06463135   0.18715499 
     230   -293395.43         1100  0.030119971   0.03105853  0.028788329  0.089966831  0.062176095  0.065801607  0.067238705   0.19521641 
     240   -293401.07    1100.7676  0.032154799  0.033076895   0.03067555  0.095907244  0.064652391  0.068346454  0.069581261   0.20258011 
     250   -293431.83         1100  0.034170285  0.035083943  0.032564193   0.10181842  0.066914065  0.070636604  0.071644842   0.20919551 
     260   -293472.83         1100  0.036156607  0.037065667  0.034420224    0.1076425  0.068949571  0.072644605  0.073425232   0.21501941 
     270   -293505.15         1100   0.03810819  0.039013122  0.036299605   0.11342092  0.070756977  0.074356897  0.074927696   0.22004157 
     280   -293534.87         1100  0.040019213  0.040919636  0.038102872   0.11904172  0.072345177  0.075766694  0.076161076   0.22427295 
     290   -293552.37         1100  0.041881625   0.04277711  0.039962043   0.12462078   0.07373864  0.076874117  0.077138164   0.22775092 
     300   -293567.77         1100  0.043688104  0.044584605  0.041808644   0.13008135   0.07496147  0.077692645  0.077876529   0.23053064 
     310   -293592.18         1100  0.045436444  0.046348731  0.043625947   0.13541112  0.076025709   0.07825045   0.07837749   0.23265365 
     320   -293619.97         1100  0.047125037   0.04806908  0.045439611   0.14063373  0.076944276  0.078578778  0.078637236   0.23416029 
     330   -293637.82         1100   0.04875223  0.049743134  0.047225803   0.14572117  0.077732658  0.078706318  0.078657133   0.23509611 
     340   -293650.24         1100   0.05031933  0.051371468  0.048993817   0.15068462  0.078399292  0.078652794  0.078454233   0.23550632 
     350   -293654.93    1100.6104  0.051825503  0.052954765  0.050715001   0.15549527  0.078954791  0.078442724  0.078050082    0.2354476 
     360   -293643.62    1099.1175  0.053269392   0.05449086  0.052417991   0.16017824  0.079423806  0.078101532  0.077469741   0.23499508 
     370    -293632.6         1100  0.054651953  0.055973362  0.054067039   0.16469235  0.079837824  0.077654256   0.07675062    0.2342427 
     380   -293630.33    1099.6946   0.05597608  0.057398414  0.055760507     0.169135  0.080214944  0.077135642  0.075917001   0.23326759 
     390   -293632.97    1100.0336  0.057240622  0.058761196  0.057333846   0.17333566  0.080555312  0.076584993   0.07498827   0.23212858 
     400   -293639.69    1100.8909  0.058445968  0.060058693  0.059104573   0.17760923  0.080848186  0.076037263  0.073986492   0.23087194 
     410   -293633.69    1100.0817  0.059595754  0.061287809  0.060589539    0.1814731  0.081077026  0.075529098  0.072944631   0.22955076 
     420   -293614.44         1100  0.060696839  0.062448982  0.062016047   0.18516187  0.081224831  0.075086871  0.071902583   0.22821429 
     430   -293589.81         1100  0.061751923  0.063549289  0.063711087    0.1890123  0.081272291  0.074734423  0.070879196   0.22688591 
     440   -293562.79         1100  0.062763637  0.064592144  0.065020807   0.19237659  0.081212605  0.074489865  0.069894316   0.22559679 
     450    -293542.7         1100  0.063736562  0.065576227  0.066631337   0.19594413  0.081052761  0.074362098  0.068982344    0.2243972 
     460   -293534.72         1100  0.064675669  0.066501702  0.067820398   0.19899777  0.080805812  0.074355182   0.06817932   0.22334031 
     470   -293535.47    1100.0578  0.065583061  0.067374508  0.069302882   0.20226045  0.080487629  0.074472037  0.067513896   0.22247356 
     480    -293535.9    1100.0882  0.066458727  0.068201179  0.070360028   0.20501993  0.080119603  0.074709459  0.067010606   0.22183967 
     490   -293524.46         1100  0.067297037  0.068978551  0.071349511    0.2076251  0.079730504  0.075055299  0.066691125   0.22147693 
     500   -293507.42         1100  0.068096556   0.06970341  0.072569485   0.21036945  0.079343408  0.075494187  0.066572938   0.22141053 
     510   -293496.62         1100  0.068857819  0.070378133  0.073439788   0.21267574  0.078966092  0.076012843  0.066660748   0.22163968 
     520   -293491.17    1099.2966  0.069579575  0.071009628  0.074422291   0.21501149  0.078607032  0.076592456  0.066950938   0.22215043 
     530   -293479.45         1100   0.07026028   0.07160675  0.075168195   0.21703523  0.078265976  0.077223776  0.067431416   0.22292117 
     540    -293471.9     1099.006  0.070903772  0.072177417  0.075911563   0.21899275  0.077944979  0.077913232    0.0680845   0.22394271 
     550   -293458.79         1100  0.071522682  0.072728343  0.076526085   0.22077711  0.077657803  0.078644695  0.068884143   0.22518664 
     560   -293452.23    1099.1607  0.072130235  0.073271379  0.077068565   0.22247018  0.077418375  0.079402938  0.069789376   0.22661069 
     570   -293447.92         1100  0.072732709  0.073819371  0.078127801   0.22467988  0.077247987  0.080168253  0.070762947   0.22817919 
     580   -293453.13    1100.6424  0.073335348  0.074384876  0.078522231   0.22624245  0.077169562  0.080919701  0.071779054   0.22986832 
     590   -293474.29         1100  0.073942114  0.074972644  0.079479325   0.22839408  0.077200032  0.081641599  0.072820836   0.23166247 
     600   -293499.84         1100  0.074552929  0.075583992  0.079736685   0.22987361  0.077348489  0.082326787   0.07388018   0.23355546 
     610   -293517.85         1100  0.075165053    0.0762182  0.080520925   0.23190418  0.077620163   0.08297408  0.074960014   0.23555426 
     620   -293527.69         1100  0.075776243   0.07686993  0.080652833   0.23329901  0.078027254  0.083582921  0.076071422    0.2376816 
     630   -293537.69         1100  0.076379835  0.077533351  0.080726393   0.23463958  0.078583753  0.084157007   0.07722397   0.23996473 
     640   -293558.73         1100  0.076970308  0.078203848  0.081327427   0.23650158  0.079290665  0.084696738  0.078428146   0.24241555 
     650   -293587.73         1100  0.077547118  0.078877622  0.081294883   0.23771962   0.08013766  0.085206149  0.079687285   0.24503109 
     660   -293605.09         1100  0.078111146  0.079551732   0.08178133   0.23944421  0.081111479  0.085691495  0.081000895   0.24780387 
     670   -293616.03         1100  0.078663126  0.080223916  0.081645286   0.24053233   0.08219461  0.086159265  0.082362237   0.25071611 
     680   -293611.96    1099.4857  0.079203618  0.080892743  0.081458568   0.24155493  0.083362306  0.086617229  0.083752664    0.2537322 
     690   -293596.42         1100  0.079731563  0.081557081  0.081840475   0.24312912  0.084588911  0.087078723  0.085154269    0.2568219 
     700   -293577.92         1100  0.080242746  0.082214741  0.081570305   0.24402779  0.085847307  0.087556119  0.086550955   0.25995438 
     710   -293558.89         1100  0.080734531  0.082864175  0.081820294     0.245419  0.087110919  0.088053827  0.087924236   0.26308898 
     720   -293525.28         1100  0.081215682  0.083503556  0.081492361    0.2462116  0.088356192  0.088565438  0.089250489   0.26617212 
     730   -293497.04         1100  0.081705412  0.084129458  0.081515072   0.24734994  0.089560154   0.08907303  0.090503399   0.26913658 
     740      -293476         1100  0.082216054  0.084734436  0.081153816   0.24810431  0.090693256  0.089556009  0.091678432    0.2719277 
     750   -293461.79         1100   0.08275381  0.085309002  0.080795432   0.24885824  0.091745009  0.089999453  0.092781086   0.27452555 
     760   -293459.21    1099.6809  0.083320477  0.085848447  0.081133385   0.25030231  0.092709089  0.090398713  0.093810611   0.27691841 
     770   -293469.69         1100  0.083912675  0.086350045  0.080792282     0.251055  0.093580789  0.090755719  0.094763499   0.27910001 
     780   -293481.58         1100   0.08452511  0.086813512  0.080927669   0.25226629   0.09436107  0.091075216  0.095639286   0.28107557 
     790   -293475.84    1099.2386  0.085153472  0.087245134  0.080617931   0.25301654   0.09505669  0.091363134  0.096436489   0.28285631 
     800   -293461.66         1100  0.085791444  0.087657449  0.080326037   0.25377493  0.095683001  0.091627101  0.097146111   0.28445621 
     810   -293451.89         1100  0.086430696  0.088061193  0.080123576   0.25461547  0.096267438  0.091871395  0.097758541   0.28589737 
     820   -293449.87    1099.7225  0.087068227  0.088464555    0.0798823   0.25541508  0.096838159  0.092091268  0.098267913   0.28719734 
     830   -293460.95         1100  0.087696228  0.088875239  0.079468102   0.25603957  0.097412748  0.092291864  0.098663116   0.28836773 
     840   -293478.45         1100  0.088305883  0.089297493  0.079295442   0.25689882  0.097997807   0.09248179  0.098944318   0.28942392 
     850   -293497.47         1100  0.088891929  0.089730734   0.07884376   0.25746642  0.098594954  0.092663859  0.099111573   0.29037039 
     860   -293506.04         1100  0.089453264  0.090171626  0.078749419   0.25837431   0.09920421  0.092839786  0.099151043   0.29119504 
     870   -293507.05    1100.0881  0.089992015  0.090614435  0.078690772   0.25929722  0.099820123  0.093009771  0.099055414   0.29188531 
     880   -293519.76         1100  0.090508315  0.091051711  0.078349974      0.25991   0.10044687  0.093170452  0.098831094   0.29244842 
     890   -293529.78         1100  0.091002219  0.091469032  0.078370489   0.26084174    0.1010924  0.093313147  0.098493739   0.29289929 
     900   -293538.87         1100  0.091476749  0.091858506  0.078800243    0.2621355   0.10174619  0.093432428  0.098060905   0.29323953 
     910   -293540.79    1100.2369  0.091933845  0.092220547  0.078880617   0.26303501   0.10238581  0.093535036  0.097543088   0.29346393 
     920    -293537.1    1099.7722  0.092371385  0.092559117  0.079391947   0.26432245   0.10299456   0.09364043  0.096942217   0.29357721 
     930   -293527.62         1100  0.092785162  0.092887335  0.079502846   0.26517534   0.10356002  0.093772036  0.096257487   0.29358955 
     940   -293514.44         1100  0.093172176  0.093223047  0.079626436   0.26602166   0.10407043  0.093951239  0.095491973   0.29351364 
     950   -293493.15         1100  0.093538042  0.093577585  0.080112233   0.26722786   0.10451422  0.094192785  0.094657907   0.29336491 
     960   -293486.23    1099.0868  0.093890117  0.093948931  0.080258127   0.26809717   0.10489024  0.094502132  0.093770529   0.29316291 
     970   -293483.67         1100  0.094231895  0.094336198  0.080418868   0.26898696   0.10520313   0.09488215  0.092854571   0.29293985 
     980   -293481.38    1099.7377  0.094567028  0.094737189  0.080968305   0.27027252   0.10546973  0.095328385   0.09193799    0.2927361 
     990   -293474.76         1100  0.094897906  0.095144618  0.081150432   0.27119296   0.10571338  0.095824766  0.091047187   0.29258533 
    1000   -293457.99         1100  0.095227178  0.095551031  0.081664516   0.27244272   0.10595037  0.096357199  0.090202568   0.29251014 
    1010   -293443.89         1100  0.095558575  0.095951341  0.081865976   0.27337589   0.10617679  0.096916772   0.08941467   0.29250824 
    1020   -293436.11         1100  0.095893953  0.096337253  0.082091492    0.2743227   0.10638702  0.097492604   0.08868496   0.29256458 
    1030   -293422.77         1100  0.096232508  0.096705323  0.082218462   0.27515629   0.10658622  0.098069681  0.088009883   0.29266579 
    1040   -293412.98         1100  0.096574362  0.097058088  0.082499491   0.27613194   0.10678522  0.098633164  0.087383651   0.29280203 
    1050   -293401.18         1100  0.096921201   0.09740019  0.082481576   0.27680297   0.10699663  0.099165946  0.086800769   0.29296335 
    1060   -293380.49         1100  0.097277065  0.097737642  0.082814467   0.27782917   0.10722936  0.099648124  0.086258116    0.2931356 
    1070   -293359.31         1100  0.097647861  0.098077772  0.083169363     0.278895   0.10748978   0.10006558  0.085755623   0.29331099 
    1080    -293334.6         1100  0.098038997  0.098428477  0.083488564   0.27995604   0.10778232   0.10041901  0.085295027   0.29349636 
    1090   -293317.52         1100  0.098451803  0.098798213  0.083877433   0.28112745   0.10810947   0.10070458  0.084879403   0.29369345 
    1100   -293308.15         1100  0.098880775  0.099196979  0.084292794   0.28237055   0.10846592   0.10090629   0.08450334   0.29387555 
    1110   -293294.97         1100  0.099318362  0.099627634  0.084716344   0.28366234   0.10883866   0.10100149  0.084164718   0.29400487 
    1120   -293278.62         1100  0.099759529   0.10008478  0.085184308   0.28502862   0.10921458   0.10097849  0.083865489   0.29405856 
    1130   -293257.07         1100   0.10020313   0.10056125  0.085644425   0.28640881    0.1095904    0.1008388  0.083612807   0.29404201 
    1140    -293238.5         1100   0.10064806   0.10104579  0.086125049    0.2878189   0.10997458   0.10059442  0.083411996   0.29398099 
    1150   -293232.71     1099.218   0.10109198   0.10152287   0.08668197   0.28929682   0.11036851   0.10027357  0.083278988   0.29392107 
    1160   -293228.44         1100   0.10153451   0.10197971  0.087205861   0.29072008   0.11075415  0.099908087  0.083228683   0.29389092 
    1170   -293222.05    1099.1843   0.10197558    0.1024116  0.087838914   0.29222609   0.11110983  0.099520864  0.083270735   0.29390143 
    1180   -293214.54         1100   0.10241588   0.10282193  0.088370703   0.29360852   0.11140452  0.099134986  0.083400723   0.29394023 
    1190   -293205.94         1100    0.1028591   0.10321253  0.089032546   0.29510418   0.11161044  0.098768814  0.083611988   0.29399124 
    1200   -293204.96    1099.8572    0.1033062   0.10357735   0.08954813   0.29643168   0.11171239  0.098428996  0.083905049   0.29404644 
    1210   -293214.59         1100   0.10375584   0.10391515  0.090043387   0.29771438   0.11170956   0.09812628  0.084283835   0.29411968 
    1220   -293220.51    1100.7435   0.10420742   0.10422532  0.090494742   0.29892747   0.11160958  0.097867146  0.084752654   0.29422938 
    1230   -293225.42         1100   0.10466305   0.10450989  0.090921911   0.30009485   0.11142847  0.097646847  0.085320677   0.29439599 
    1240   -293240.71         1100   0.10512499   0.10477546  0.091119575   0.30102002   0.11119548  0.097455005  0.086003758   0.29465424 
    1250   -293270.99         1100   0.10559524   0.10502851  0.091474875   0.30209863   0.11094577  0.097282076  0.086815872   0.29504372 
    1260   -293317.78         1100    0.1060731   0.10527633  0.091441667    0.3027911   0.11069434  0.097138838  0.087762252   0.29559543 
    1270   -293342.88         1100   0.10655575   0.10552398  0.091733358   0.30381309   0.11044564  0.097042014  0.088846456   0.29633411 
    1280   -293364.79         1100    0.1070448   0.10576678  0.091998183   0.30480976   0.11020767  0.097005764  0.090082113   0.29729554 
    1290   -293386.91         1100   0.10753923   0.10599517  0.091770828   0.30530523   0.10999044  0.097044659  0.091476077   0.29851118 
    1300   -293389.93     1100.355   0.10803592   0.10620505  0.091980054   0.30622103   0.10978944  0.097181061  0.093020765   0.29999127 
    1310   -293384.43     1099.681   0.10853119   0.10639824  0.091590744   0.30652017   0.10960148  0.097433324  0.094711152   0.30174595 
    1320   -293376.15         1100   0.10902434   0.10657872  0.091754079   0.30735714   0.10943153   0.09780474  0.096534534    0.3037708 
    1330    -293365.6         1100   0.10951916   0.10675251  0.091903735    0.3081754   0.10928225  0.098291128   0.09845864   0.30603201 
    1340   -293370.95    1100.7144   0.11001546   0.10692437  0.091424195   0.30836402   0.10914682  0.098879586   0.10044562   0.30847203 
    1350   -293392.02         1100   0.11050955   0.10709628  0.091554196   0.30916003   0.10902898  0.099548058   0.10246295   0.31103999 
    1360   -293426.34         1100    0.1110023   0.10726353  0.091226246   0.30949208   0.10893949   0.10026654   0.10446914   0.31367517 
    1370   -293455.51         1100   0.11149015   0.10741544  0.091353564   0.31025916   0.10889152   0.10100029   0.10642016   0.31631198 
    1380   -293477.42         1100   0.11196272     0.107544  0.091480184   0.31098691   0.10889866   0.10172439   0.10828038   0.31890344 
    1390   -293505.25         1100   0.11241046   0.10764628  0.091412251   0.31146899   0.10897047   0.10242618   0.11002332   0.32141997 
    1400   -293534.51         1100   0.11282727   0.10772739   0.09152614   0.31208081   0.10910999   0.10309328   0.11161951   0.32382278 
    1410   -293567.83         1100    0.1132066   0.10780204  0.091958147   0.31296678   0.10931576   0.10370515   0.11304125   0.32606216 
    1420   -293602.51         1100   0.11354145   0.10788278  0.092075737   0.31349997    0.1095948   0.10424605   0.11427105    0.3281119 
    1430   -293627.28         1100   0.11382899   0.10797481  0.092197056   0.31400086   0.10995352   0.10471878   0.11530366   0.32997596 
    1440   -293642.32         1100     0.114071   0.10807866  0.092353121   0.31450278   0.11039382   0.10513123   0.11614548   0.33167053 
    1450   -293664.08         1100   0.11427053   0.10819397  0.092490961   0.31495546     0.110925   0.10549719   0.11681311   0.33323529 
    1460   -293672.18         1100   0.11443434    0.1083199  0.092365238   0.31511948   0.11155117   0.10583702   0.11732381   0.33471199 
    1470   -293659.55         1100   0.11457209   0.10845637  0.092522661   0.31555112   0.11227117   0.10617046   0.11769832   0.33613996 
    1480   -293632.64         1100   0.11469101   0.10860058  0.092693098   0.31598468   0.11308171   0.10651919   0.11795771   0.33755862 
    1490   -293604.82         1100   0.11479388    0.1087486  0.093079483   0.31662196   0.11397501   0.10689924   0.11812138   0.33899562 
    1500   -293573.42         1100   0.11488491   0.10889447  0.093289387   0.31706877   0.11494308   0.10731545   0.11821149   0.34047003 
    1510   -293544.77         1100   0.11496817   0.10903086  0.093826996   0.31782602   0.11596644   0.10777154   0.11825155   0.34198953 
    1520   -293525.43         1100   0.11504358   0.10915108  0.094103909   0.31829857   0.11702566   0.10827042   0.11826638   0.34356246 
    1530    -293508.5         1100   0.11510201   0.10925333   0.09442078   0.31877612   0.11809911   0.10880504   0.11828149   0.34518564 
    1540   -293490.28         1100   0.11513092   0.10934255  0.095086562   0.31956004    0.1191677   0.10935769   0.11830978   0.34683517 
    1550   -293472.37         1100    0.1151281   0.10943088  0.095484948   0.32004393   0.12020837   0.10991748   0.11835554   0.34848139 
    1560   -293455.57         1100   0.11509251   0.10952739   0.09591749   0.32053739   0.12119525   0.11048752   0.11842329   0.35010606 
    1570   -293445.97         1100   0.11502703   0.10963504   0.09685489   0.32151696   0.12211936   0.11106225   0.11851695   0.35169856 
    1580   -293434.93         1100   0.11494017   0.10975712  0.097347672   0.32204497   0.12297593   0.11163269   0.11862494   0.35323357 
    1590   -293414.93         1100   0.11483995   0.10989782   0.09849664   0.32323441   0.12374984   0.11219538   0.11872868    0.3546739 
    1600   -293398.21         1100   0.11473366   0.11006101  0.099046958   0.32384163   0.12442735   0.11275102   0.11881739   0.35599577 
    1610   -293383.01         1100   0.11463116   0.11025023  0.099618941   0.32450033   0.12501392   0.11330523   0.11887783   0.35719697 
    1620   -293369.52         1100   0.11453793   0.11046088    0.1008026   0.32580142   0.12552468   0.11385993     0.118902   0.35828661 
    1630   -293365.54    1099.4892   0.11445568   0.11068563   0.10140868   0.32654999    0.1259796   0.11439858   0.11888401   0.35926219 
    1640   -293379.36         1100   0.11438706    0.1109183   0.10202965   0.32733502   0.12640925   0.11489349   0.11881543   0.36011816 
    1650   -293400.97         1100   0.11433395   0.11115779   0.10292574   0.32841748   0.12684884   0.11531359   0.11869639   0.36085882 
    1660   -293425.68         1100   0.11429615   0.11140437    0.1035713   0.32927182   0.12731144    0.1156377   0.11853092   0.36148006 
    1670   -293447.59         1100   0.11427419   0.11165293   0.10418224   0.33010936    0.1278052   0.11584994   0.11833149   0.36198663 
    1680   -293468.46         1100   0.11426612   0.11189565   0.10483542    0.3309972   0.12834368   0.11594456   0.11811182   0.36240006 
    1690   -293489.26         1100   0.11426714   0.11213558   0.10548009   0.33188281   0.12894251   0.11593214   0.11788171   0.36275636 
    1700   -293503.67         1100   0.11427859   0.11238107   0.10618813    0.3328478   0.12961332   0.11583593   0.11765056   0.36309981 
    1710   -293516.53         1100   0.11431159   0.11263851   0.10679253   0.33374263   0.13036723   0.11567929   0.11743703   0.36348356 
    1720   -293527.15         1100   0.11437035   0.11291287   0.10740834   0.33469157   0.13121531   0.11548163   0.11726308   0.36396001 
    1730   -293539.79         1100   0.11445353   0.11320681   0.10795703   0.33561737   0.13216428   0.11525772   0.11713883   0.36456083 
    1740   -293550.55         1100   0.11455889   0.11352311   0.10847305   0.33655504   0.13319988   0.11502744    0.1170625   0.36528982 
    1750   -293558.84         1100   0.11468501   0.11385788   0.10861126   0.33715416   0.13428915   0.11481225   0.11704459   0.36614599 
    1760   -293571.55         1100   0.11483365   0.11420163   0.10907539   0.33811067   0.13539946    0.1146284   0.11711577   0.36714363 
    1770    -293583.3         1100   0.11500074   0.11454826   0.10899144   0.33854043   0.13649337   0.11449135   0.11729272   0.36827744 
    1780   -293574.85         1100   0.11517682   0.11489362   0.10943054   0.33950099   0.13752505   0.11440774   0.11757904   0.36951183 
    1790    -293563.1         1100    0.1153518   0.11523479   0.10985631    0.3404429    0.1384598   0.11439561   0.11796794   0.37082335 
    1800   -293540.46         1100   0.11551678   0.11556599   0.10970339   0.34078616   0.13927932   0.11447454   0.11844169   0.37219555 
    1810   -293517.62         1100   0.11566411   0.11588062     0.110105   0.34164974   0.13997843    0.1146613   0.11898643   0.37362615 
    1820   -293513.73    1099.4653   0.11578872   0.11617502   0.10987301   0.34183675   0.14055913   0.11496808   0.11958644   0.37511365 
    1830   -293518.98    1100.1292   0.11589608   0.11644632    0.1102498   0.34259221   0.14101622   0.11540133   0.12021446     0.376632 
    1840    -293505.3         1100   0.11599219   0.11669768   0.10981924   0.34250911   0.14135599   0.11595563   0.12084465   0.37815627 
    1850   -293486.54         1100   0.11607987   0.11693947   0.11019086    0.3432102   0.14159148    0.1166207   0.12145849   0.37967067 
    1860   -293456.13         1100   0.11615856   0.11717764   0.11056399    0.3439002   0.14173472   0.11738171   0.12204396   0.38116039 
    1870   -293405.17         1100   0.11622743   0.11741469    0.1100466   0.34368872   0.14179382   0.11822351   0.12259558   0.38261291 
    1880   -293354.88         1100    0.1162881   0.11764924   0.11041062   0.34434796   0.14177442   0.11913305   0.12311412   0.38402159 
    1890   -293311.95         1100   0.11634244   0.11787306   0.10987816   0.34409366   0.14168362   0.12010045   0.12360805   0.38539212 
    1900   -293271.25         1100   0.11639321   0.11807699   0.11022261   0.34469282   0.14152537   0.12111341   0.12409244   0.38673122 
    1910   -293236.25         1100   0.11644492   0.11825284   0.10971404   0.34441179   0.14129498   0.12214327   0.12458022   0.38801847 
    1920   -293196.68         1100    0.1164994   0.11839212   0.11004027   0.34493179     0.140987   0.12315162   0.12508229   0.38922092 
    1930   -293150.81         1100   0.11655503   0.11849031   0.11036849   0.34541383   0.14060431   0.12411279   0.12561021   0.39032731 
    1940   -293110.47         1100   0.11660955   0.11854146   0.11000942   0.34516043   0.14015429   0.12500536   0.12617096   0.39133061 
    1950   -293080.33         1100   0.11666346   0.11854382   0.11036886   0.34557614    0.1396448   0.12581105   0.12677716   0.39223301 
    1960   -293052.74         1100   0.11671622    0.1185037   0.11023565   0.34545557   0.13908308   0.12651708   0.12744036   0.39304052 
    1970   -293033.72         1100   0.11676041   0.11843825   0.11062975   0.34582842   0.13846283   0.12711927   0.12815896   0.39374107 
    1980   -293033.06     1099.916   0.11678758   0.11836217   0.11103351   0.34618326   0.13778096   0.12761439   0.12891669   0.39431204 
    1990   -293040.75    1100.9083   0.11679944   0.11827988   0.11116496   0.34624428   0.13705304   0.12800133   0.12969602   0.39475038 
    2000   -293046.85         1100   0.11679661   0.11819086   0.11157904   0.34656652   0.13629831   0.12828203   0.13048106    0.3950614 
    2010   -293060.56         1100    0.1167747   0.11809535   0.11189608   0.34676614   0.13552086   0.12846685   0.13125489   0.39524259 
    2020    -293074.5         1100   0.11672928   0.11799271   0.11231739   0.34703938   0.13471499   0.12856911    0.1319986   0.39528271 
    2030    -293079.5    1100.6296   0.11665866   0.11787796   0.11273878   0.34727539   0.13388496   0.12859093   0.13268296   0.39515885 
    2040   -293090.52         1100    0.1165619   0.11775149   0.11321388   0.34752726   0.13304134    0.1285399   0.13327914   0.39486038 
    2050   -293109.97         1100   0.11644074   0.11762127   0.11363828   0.34770029   0.13219194   0.12843437   0.13376911   0.39439542 
    2060   -293134.17         1100   0.11630226   0.11749134      0.11425    0.3480436   0.13134913   0.12829724    0.1341467   0.39379307 
    2070   -293144.73         1100   0.11615466   0.11736036   0.11471027    0.3482253   0.13052598   0.12815299   0.13439879   0.39307776 
    2080   -293144.78    1100.0354   0.11600159   0.11722734   0.11541968   0.34864862   0.12971983   0.12802574   0.13450189   0.39224746 
    2090   -293151.71    1100.9603   0.11584343   0.11709251   0.11591504   0.34885098   0.12894016   0.12792277   0.13443727    0.3913002 
    2100   -293169.88         1100   0.11567945   0.11696467   0.11671894   0.34936307   0.12819448   0.12785014   0.13420004   0.39024466 
    2110   -293200.44         1100   0.11550924   0.11685444   0.11722245   0.34958613   0.12748874    0.1278073   0.13379183   0.38908787 
    2120   -293231.09         1100   0.11533361   0.11676599   0.11807046   0.35017006   0.12684097   0.12778592   0.13322139   0.38784828 
    2130   -293254.32         1100    0.1151513   0.11669899   0.11855828   0.35040857   0.12625049   0.12778091   0.13251323   0.38654462 
    2140   -293261.08    1100.8796   0.11496719   0.11664676    0.1190201   0.35063405   0.12570662   0.12776835    0.1317023   0.38517727 
    2150   -293265.43         1100   0.11478945   0.11660163   0.11979678   0.35118786   0.12520156    0.1277121    0.1308264   0.38374007 
    2160   -293262.48    1099.6107   0.11461495    0.1165591   0.12018785    0.3513619   0.12472243   0.12759599   0.12991069   0.38222911 
    2170   -293252.37         1100   0.11443014   0.11651264   0.12085355   0.35179633   0.12425843   0.12740661   0.12894288   0.38060793 
    2180   -293243.68         1100    0.1142272   0.11645167   0.12119895   0.35187782   0.12380352   0.12712152   0.12792378   0.37884882 
    2190   -293248.48    1100.6076   0.11400378   0.11637538   0.12175781   0.35213697    0.1233457    0.1267307   0.12685823   0.37693463 
    2200    -293254.4         1100    0.1137644    0.1162916   0.12207705   0.35213306   0.12287024   0.12624381   0.12575053   0.37486458 
    2210   -293258.96    1100.6053   0.11351011   0.11620518    0.1223909   0.35210619   0.12235716   0.12567597   0.12461713   0.37265027 
    2220   -293259.06    1100.6413   0.11323963   0.11611794   0.12286094   0.35221852   0.12178743   0.12503426   0.12348889   0.37031057 
    2230   -293251.53    1099.6571   0.11295971   0.11603868   0.12318404   0.35218242   0.12114437   0.12431921   0.12240874   0.36787232 
    2240   -293245.41         1100    0.1126782   0.11597341   0.12328836   0.35193997   0.12041411   0.12352696   0.12140608   0.36534716 
    2250   -293249.37    1100.5361   0.11239767   0.11592804   0.12361446   0.35194017   0.11958872    0.1226623   0.12049364   0.36274465 
    2260   -293261.55         1100   0.11212606   0.11590832   0.12392429   0.35195867   0.11865749   0.12173367    0.1196924   0.36008357 
    2270   -293284.01         1100   0.11186705   0.11590984   0.12402549   0.35180237   0.11762201   0.12073933   0.11902041   0.35738176 
    2280   -293302.22         1100   0.11161786   0.11592503   0.12425729   0.35180019   0.11649804   0.11967949   0.11849688   0.35467441 
    2290   -293311.23         1100   0.11137897   0.11594613    0.1240129   0.35133799   0.11530172   0.11856197   0.11813912   0.35200281 
    2300   -293326.47         1100    0.1111504   0.11596866   0.12414982   0.35126888   0.11404393   0.11740623   0.11796278   0.34941294 
    2310   -293345.13         1100   0.11093143   0.11599083   0.12370049   0.35062275    0.1127495   0.11624739   0.11799029   0.34698718 
    2320   -293363.87         1100   0.11072099   0.11600632   0.12380682   0.35053414   0.11144041   0.11511206   0.11823331   0.34478578 
    2330   -293381.19         1100   0.11051673   0.11600367   0.12332535   0.34984575   0.11013372    0.1140134   0.11867705   0.34282417 
    2340   -293395.34         1100   0.11031804   0.11597794   0.12342469   0.34972067   0.10883842   0.11297124   0.11930091   0.34111057 
    2350   -293402.77    1100.9667   0.11012939   0.11593288   0.12328414   0.34934641   0.10756434   0.11200794   0.12007424   0.33964652 
    2360   -293404.23         1100   0.10995896   0.11587736   0.12340258   0.34923889   0.10632294   0.11113353   0.12096629   0.33842276 
    2370   -293402.41    1099.7657   0.10981099   0.11582081   0.12340489   0.34903669   0.10512535   0.11034636   0.12196285   0.33743456 
    2380   -293395.95         1100   0.10967812   0.11577116    0.1235503   0.34899958   0.10398595    0.1096443   0.12303916   0.33666941 
    2390   -293389.73    1099.2039    0.1095561   0.11572054    0.1236027   0.34887935   0.10290796   0.10902508   0.12417264   0.33610569 
    2400   -293394.73    1099.8559   0.10944984   0.11566018   0.12372408    0.3488341   0.10188325   0.10849816   0.12533849   0.33571989 
    2410   -293403.35    1100.9449   0.10935995   0.11559201   0.12381936   0.34877132   0.10091138   0.10808998   0.12651267   0.33551403 
    2420   -293417.64         1100   0.10928428   0.11551914   0.12389007   0.34869349   0.10000048   0.10782645   0.12768136   0.33550829 
    2430   -293433.62         1100   0.10922209   0.11543945   0.12392547   0.34858701  0.099167021   0.10772641   0.12884324   0.33573667 
    2440   -293446.45         1100   0.10916992   0.11535389   0.12410342   0.34862722  0.098416438   0.10780193   0.12999057   0.33620894 
    2450   -293455.05         1100   0.10912568   0.11526478   0.12410496   0.34849542  0.097747335   0.10804617   0.13109899    0.3368925 
    2460   -293452.58    1099.6862   0.10909342   0.11517449   0.12409068   0.34835859   0.09715867   0.10842731    0.1321376   0.33772358 
    2470   -293437.96         1100   0.10907558   0.11508844   0.12413121   0.34829524  0.096654604   0.10888955   0.13307583   0.33861998 
    2480   -293426.22         1100   0.10907108   0.11501148   0.12408289   0.34816544  0.096240613   0.10936683   0.13387787   0.33948532 
    2490   -293425.52    1099.9319   0.10907929   0.11493879   0.12401812    0.3480362  0.095913495   0.10980369   0.13451349   0.34023067 
    2500   -293417.85         1100   0.10909752    0.1148691   0.12389464   0.34786127  0.095666732    0.1101602    0.1349641   0.34079104 
    2510   -293400.94         1100   0.10912149   0.11480662   0.12369913   0.34762723  0.095493857   0.11040815   0.13522484   0.34112685 
    2520      -293388         1100   0.10914329   0.11475366   0.12348836   0.34738531  0.095387524   0.11051972   0.13530926    0.3412165 
    2530   -293379.75         1100   0.10915599   0.11470976   0.12323386    0.3470996  0.095331278   0.11047995    0.1352336   0.34104483 
    2540   -293379.17    1099.9311     0.109156   0.11467144   0.12286543   0.34669287  0.095309952    0.1102872   0.13501536   0.34061252 
    2550   -293383.08    1100.4233   0.10914087   0.11463235   0.12252879   0.34630202  0.095313274   0.10995577   0.13468133   0.33995037 
    2560   -293400.83         1100    0.1091076   0.11459255   0.12206946    0.3457696  0.095332653   0.10951809    0.1342707   0.33912144 
    2570   -293409.66         1100   0.10905375   0.11455378    0.1216942   0.34530173  0.095359278   0.10900132   0.13382757   0.33818818 
    2580   -293418.59         1100   0.10898148   0.11451618    0.1212386   0.34473627  0.095389999   0.10841163   0.13337937     0.337181 
    2590   -293434.27         1100   0.10889457   0.11447963   0.12085469   0.34422889   0.09542107   0.10776164   0.13293934   0.33612206 
    2600   -293450.56         1100   0.10879152   0.11444152   0.12048093   0.34371397   0.09545426   0.10707322   0.13252093   0.33504841 
    2610   -293461.41         1100   0.10866369   0.11439167   0.12007079   0.34312615  0.095499969   0.10636223   0.13213181     0.333994 
    2620   -293459.83    1099.8239   0.10849983    0.1143137   0.11973509   0.34254862  0.095573055   0.10563539   0.13177756     0.332986 
    2630   -293446.27         1100   0.10829145   0.11419266   0.11948861   0.34197273  0.095684954   0.10490117   0.13147121   0.33205733 
    2640   -293438.79    1099.0326   0.10803588   0.11402616   0.11920407   0.34126611  0.095837554   0.10417735   0.13122165   0.33123655 
    2650   -293437.38         1100   0.10773139   0.11381843   0.11895083   0.34050065  0.096029431   0.10348278   0.13102603   0.33053824 
    2660   -293436.73    1099.9296   0.10737843   0.11356895   0.11876184   0.33970923  0.096261626   0.10283398   0.13087975   0.32997536 
    2670   -293432.16    1099.3135   0.10697419    0.1132733   0.11857242   0.33881991  0.096529991   0.10224948   0.13078309   0.32956256 
    2680   -293422.82         1100   0.10652031   0.11293286   0.11846839   0.33792156  0.096827723    0.1017364   0.13073378   0.32929791 
    2690   -293401.69         1100   0.10602631   0.11255328   0.11832543   0.33690502  0.097154515   0.10128921   0.13071783   0.32916156 
    2700   -293380.33         1100   0.10549971   0.11213539   0.11823046   0.33586556  0.097510788   0.10090523   0.13071046   0.32912648 
    2710   -293374.52    1099.2053   0.10494037    0.1116754   0.11814088   0.33475665  0.097889089   0.10058824   0.13068415   0.32916148 
    2720    -293393.2         1100   0.10434669   0.11116844   0.11807517   0.33359031  0.098287521   0.10033232   0.13061426    0.3292341 
    2730   -293419.98         1100   0.10371841   0.11060812   0.11801548   0.33234201   0.09870479   0.10012661   0.13048112   0.32931252 
    2740   -293439.88         1100   0.10306108   0.10999389   0.11798261   0.33103757  0.099140438  0.099951328    0.1302586   0.32935036 
    2750   -293456.27         1100   0.10238366   0.10934367   0.11794816    0.3296755  0.099599294  0.099794357   0.12990781   0.32930146 
    2760   -293472.92         1100   0.10168963   0.10867557   0.11793113   0.32829633   0.10007771  0.099653743    0.1294136   0.32914506 
    2770   -293490.26         1100   0.10097854   0.10799882   0.11791898   0.32689634   0.10056048  0.099523449   0.12878899   0.32887292 
    2780   -293506.47         1100   0.10025666   0.10732497   0.11793912   0.32552075   0.10102678  0.099398772   0.12805859   0.32848414 
    2790   -293524.27         1100  0.099534607   0.10666355   0.11794659   0.32414475    0.1014575  0.099284629   0.12723747    0.3279796 
    2800   -293546.87         1100   0.09881861   0.10601844   0.11805215    0.3228892   0.10183238  0.099193887   0.12634287   0.32736913 
    2810   -293567.32         1100  0.098114268   0.10539321   0.11808767   0.32159515   0.10213498  0.099135771   0.12540014   0.32667089 
    2820   -293594.95         1100  0.097429701    0.1047933      0.11827   0.32049301   0.10236492  0.099116584   0.12442112   0.32590263 
    2830   -293627.64         1100  0.096770377   0.10421896    0.1183187   0.31930804   0.10253065  0.099138945   0.12341316   0.32508276 
    2840   -293646.89         1100  0.096135945   0.10367198    0.1185281   0.31833603   0.10263721  0.099206118   0.12239148   0.32423481 
    2850   -293652.86    1100.7717  0.095521059   0.10315271   0.11856922   0.31724299   0.10268604  0.099327186   0.12137908    0.3233923 
    2860   -293647.24    1100.0398  0.094920722   0.10265989   0.11874898   0.31632959   0.10268258  0.099512868   0.12039158   0.32258702 
    2870   -293636.78         1100  0.094331841   0.10219372    0.1187639   0.31528946   0.10263981  0.099765793   0.11943486   0.32184046 
    2880   -293623.38         1100  0.093752403   0.10176001   0.11887373   0.31438614   0.10257229   0.10007536   0.11850171   0.32114936 
    2890   -293607.22         1100  0.093180634   0.10136522   0.11887953   0.31342538   0.10247895   0.10042741   0.11758922   0.32049558 
    2900   -293599.91    1099.0075  0.092612225    0.1010057   0.11889131   0.31250924   0.10235269   0.10081752   0.11668708   0.31985728 
    2910   -293599.22         1100  0.092053482   0.10068729   0.11892043    0.3116612   0.10218224   0.10124388   0.11577611   0.31920223 
    2920   -293594.06    1099.3264  0.091517367   0.10041482    0.1189262   0.31085838   0.10195282   0.10170071    0.1148495   0.31850302 
    2930   -293592.53    1099.1638  0.091015589   0.10018526   0.11885757   0.31005842   0.10165191   0.10217494   0.11392679   0.31775364 
    2940   -293600.01    1100.1559  0.090551026  0.099992126   0.11887657   0.30941972   0.10127343   0.10264777   0.11303375   0.31695495 
    2950   -293623.67         1100   0.09012644  0.099835627   0.11890511   0.30886718   0.10081827   0.10310993   0.11218962   0.31611781 
    2960   -293665.44         1100  0.089745627  0.099719417   0.11883117   0.30829621   0.10029466   0.10355589   0.11141676    0.3152673 
    2970   -293705.21         1100  0.089409216  0.099643644   0.11887802   0.30793088  0.099719312   0.10398182   0.11073582   0.31443695 
    2980   -293718.21         1100  0.089114068  0.099606869   0.11904248   0.30776342  0.099112931   0.10439089   0.11016921   0.31367303 
    2990   -293711.39    1099.1138  0.088854051  0.099607955   0.11911645   0.30757846   0.09849692   0.10479313   0.10972986   0.31301991 
    3000   -293703.29         1100  0.088622019  0.099640203   0.11919235   0.30745458  0.097890956   0.10519839   0.10941481   0.31250416 
    3010    -293698.3    1099.3691  0.088409572  0.099697077   0.11949524   0.30760189  0.097321165   0.10560294   0.10920932   0.31213343 
    3020   -293700.37    1099.6687  0.088212954  0.099776754   0.11954914   0.30753885  0.096815207   0.10599891   0.10909688     0.311911 
    3030    -293689.9         1100  0.088035273  0.099881053   0.11987955   0.30779588  0.096389864   0.10638209   0.10906159   0.31183355 
    3040   -293665.35         1100  0.087881748   0.10001054   0.11992447   0.30781677   0.09605213   0.10674344   0.10908752    0.3118831 
    3050   -293638.15         1100   0.08775111   0.10016048    0.1202403    0.3081519   0.09580122    0.1070639   0.10917429   0.31203941 
    3060   -293610.16         1100  0.087642635   0.10032306   0.12029123   0.30825692  0.095637785   0.10732007   0.10932625   0.31228411 
    3070    -293588.9         1100  0.087558966   0.10049638   0.12051518   0.30857053  0.095555027   0.10748773   0.10954631   0.31258906 
    3080    -293569.2         1100  0.087501801    0.1006826   0.12055141   0.30873581  0.095543311   0.10754115    0.1098308   0.31291527 
    3090   -293560.92         1100  0.087468976    0.1008822   0.12065498   0.30900616   0.09559489   0.10745932   0.11017225   0.31322646 
    3100   -293567.22    1100.8018  0.087451759   0.10109491   0.12065147   0.30919814  0.095699849   0.10723657   0.11055828   0.31349469 
    3110   -293571.58         1100  0.087441513   0.10131936    0.1206485   0.30940937  0.095840912   0.10687894   0.11097021   0.31369006 
    3120   -293567.36    1099.4444  0.087434578   0.10155152   0.12058593   0.30957202  0.095993496   0.10639322   0.11139128   0.31377799 
    3130    -293549.9         1100  0.087427163   0.10178576   0.12049083   0.30970375  0.096137512   0.10578832   0.11181215   0.31373798 
    3140   -293531.63         1100  0.087413523   0.10201385   0.12038392   0.30981129  0.096265528   0.10508198   0.11222407   0.31357158 
    3150   -293510.72         1100  0.087388045   0.10222657   0.12022823   0.30984284  0.096379348   0.10429622   0.11261795   0.31329352 
    3160    -293488.5         1100  0.087350023   0.10242315   0.12006096   0.30983413  0.096481697   0.10344886   0.11298424    0.3129148 
    3170   -293471.69         1100  0.087303095   0.10260142   0.11986374   0.30976825  0.096577431   0.10255916    0.1133103   0.31244689 
    3180   -293470.93    1099.8699  0.087248654    0.1027608    0.1196606   0.30967006  0.096669445   0.10164779   0.11358441   0.31190164 
    3190   -293480.39         1100  0.087184775   0.10290349   0.11940899   0.30949725  0.096758071   0.10073253   0.11379264   0.31128324 
    3200   -293484.14    1100.4565  0.087109568   0.10303049   0.11920486   0.30934492  0.096843088  0.099836175   0.11391521   0.31059447 
    3210   -293496.07         1100  0.087025796   0.10314763   0.11886906   0.30904249  0.096930354  0.098978571   0.11392995   0.30983887 
    3220    -293513.4         1100  0.086936556   0.10326143   0.11869153   0.30888951  0.097032949  0.098181083   0.11382781   0.30904184 
    3230   -293529.38         1100  0.086839021    0.1033748   0.11854748    0.3087613  0.097164293  0.097460946   0.11362218   0.30824742 
    3240   -293547.71         1100   0.08672886   0.10348625   0.11829065   0.30850576  0.097329425  0.096828804   0.11333848   0.30749671 
    3250   -293570.19         1100   0.08660236   0.10359329   0.11822604   0.30842169  0.097532295  0.096286799   0.11300391   0.30682301 
    3260   -293587.41         1100  0.086457508   0.10369617   0.11797118   0.30812486  0.097776937  0.095825693   0.11264547    0.3062481 
    3270   -293604.33         1100  0.086293092    0.1037951   0.11798977   0.30807796  0.098070314  0.095437947   0.11228685   0.30579511 
    3280   -293630.84         1100  0.086107882   0.10388981    0.1177028   0.30770049  0.098418314  0.095113177   0.11194787   0.30547936 
    3290   -293658.24         1100  0.085901204    0.1039819   0.11778522   0.30766832  0.098819918  0.094839466   0.11164179   0.30530117 
    3300   -293663.11    1100.6392  0.085679082   0.10407635    0.1178778   0.30763323  0.099256132  0.094608055   0.11137144   0.30523563 
    3310   -293652.17    1099.1981  0.085449836    0.1041737   0.11768932   0.30731285  0.099700792   0.09441618   0.11112603     0.305243 
    3320   -293638.59         1100  0.085216608   0.10426984   0.11778718   0.30727362   0.10013417  0.094265248   0.11088707   0.30528648 
    3330   -293616.56         1100  0.084979629   0.10436551   0.11770638   0.30705151   0.10054575   0.09415418    0.1106399   0.30533984 
    3340   -293583.57         1100  0.084740204   0.10446538   0.11779904   0.30700462   0.10093303  0.094082345    0.1103795   0.30539488 
    3350   -293542.14         1100  0.084499005   0.10457254   0.11775912   0.30683067   0.10129441  0.094057632    0.1101096   0.30546164 
    3360   -293506.67         1100  0.084255314   0.10468673   0.11784038   0.30678243   0.10162424  0.094082817   0.10983316   0.30554022 
    3370   -293477.85         1100  0.084010253   0.10480878   0.11779206   0.30661109   0.10191536  0.094147123   0.10954553   0.30560802 
    3380   -293456.45         1100  0.083764495   0.10494176   0.11785409   0.30656034   0.10216764  0.094238019   0.10924407   0.30564973 
    3390    -293426.8         1100  0.083516984   0.10508786   0.11790037   0.30650521   0.10238652  0.094348702    0.1089363   0.30567152 
    3400   -293399.47         1100  0.083267252   0.10524697   0.11792885   0.30644308   0.10256945  0.094480551   0.10863599   0.30568599 
    3410   -293396.01    1099.5867   0.08301675   0.10541946   0.11795144   0.30638765   0.10269834  0.094648973   0.10835043   0.30569774 
    3420   -293419.45         1100  0.082768973   0.10560627   0.11795322   0.30632847   0.10276179  0.094867419   0.10808862   0.30571784 
    3430   -293456.11         1100  0.082531506    0.1058076   0.11795056   0.30628967   0.10275434  0.095132449   0.10786115   0.30574794 
    3440   -293497.63         1100  0.082314472   0.10602724   0.11787411   0.30621581   0.10267218   0.09542865   0.10767253   0.30577336 
    3450   -293533.61         1100  0.082124001   0.10627145   0.11783923   0.30623468   0.10252002  0.095743268   0.10752545   0.30578874 
    3460   -293557.33         1100  0.081966511   0.10653843   0.11771439   0.30621933   0.10230609  0.096063171   0.10740644   0.30577571 
    3470   -293572.13         1100  0.081850453    0.1068179   0.11764085    0.3063092   0.10203871  0.096380241   0.10729048   0.30570943 
    3480   -293589.31         1100  0.081783163   0.10710986   0.11748115   0.30637418   0.10172744  0.096684453   0.10715255   0.30556444 
    3490   -293612.76         1100  0.081768939   0.10741925   0.11733558   0.30652377   0.10137992  0.096975783   0.10697633   0.30533203 
    3500   -293637.29         1100  0.081807235   0.10774948   0.11712626   0.30668298   0.10100179  0.097268302   0.10676137   0.30503146 
    3510    -293649.6         1100  0.081897786   0.10810025   0.11688602   0.30688406   0.10060642  0.097572619   0.10652337   0.30470241 
    3520   -293651.75    1100.2933  0.082045602    0.1084671   0.11664053   0.30715323   0.10020873  0.097889981    0.1062846   0.30438332 
    3530    -293657.8         1100  0.082253659   0.10884391   0.11631412   0.30741169  0.099814217   0.09822554   0.10606147   0.30410123 
    3540   -293660.51    1100.3993  0.082519085   0.10922768   0.11594822   0.30769499  0.099424846  0.098588167   0.10586326   0.30387628 
    3550   -293664.34    1100.9571  0.082839268   0.10961417    0.1156443   0.30809773  0.099047152  0.098978229   0.10569253   0.30371791 
    3560   -293668.29         1100  0.083209712   0.11000051   0.11521196   0.30842218  0.098689626  0.099399144   0.10554646   0.30363523 
    3570   -293664.91    1099.5677   0.08362324   0.11039249   0.11490108   0.30891681  0.098357214  0.099852805    0.1054176   0.30362762 
    3580   -293650.49         1100  0.084075475   0.11078922   0.11440142   0.30926612  0.098050411   0.10032507   0.10529701   0.30367248 
    3590   -293639.49         1100  0.084562684    0.1111807   0.11387853   0.30962191  0.097765275    0.1007898   0.10517444   0.30372951 
    3600   -293621.88         1100  0.085074297   0.11155877   0.11332303    0.3099561  0.097491692   0.10123676   0.10506494    0.3037934 
    3610   -293594.82         1100  0.085603823   0.11191646   0.11277129   0.31029156  0.097218746   0.10165913   0.10498884   0.30386672 
    3620   -293566.77         1100   0.08614947   0.11224747   0.11209401   0.31049095  0.096945875   0.10202626   0.10495813   0.30393027 
    3630   -293543.63         1100  0.086708851    0.1125497   0.11153253   0.31079109  0.096673123   0.10231374      0.10499   0.30397686 
    3640   -293530.38         1100  0.087279962   0.11282245   0.11097079    0.3110732  0.096397214   0.10252167   0.10510141   0.30402029 
    3650   -293526.57    1099.4951  0.087857627   0.11306463   0.11033017   0.31125243  0.096124467   0.10264874   0.10529568   0.30406888 
    3660   -293530.11    1099.9417  0.088433219   0.11327332   0.10977231   0.31147885  0.095865408   0.10270222    0.1055718   0.30413943 
    3670   -293527.97    1099.6401  0.089000923   0.11344277   0.10922193   0.31166563   0.09563503   0.10269566   0.10593154   0.30426223 
    3680   -293520.69         1100  0.089560495   0.11356274   0.10865448   0.31177771  0.095451086    0.1026453   0.10637564   0.30447202 
    3690    -293500.6         1100  0.090113473   0.11362995   0.10815523   0.31189865  0.095321032   0.10256496   0.10689079   0.30477678 
    3700   -293470.72         1100  0.090655015    0.1136483   0.10768217   0.31198549  0.095240856   0.10245079   0.10745139   0.30514303 
    3710   -293442.83         1100  0.091183902   0.11362256   0.10725996   0.31206642  0.095208932   0.10230648   0.10803079   0.30554621 
    3720   -293415.18         1100  0.091704061   0.11355363   0.10687851    0.3121362   0.09522837   0.10214429   0.10860164    0.3059743 
    3730   -293381.19         1100  0.092217987   0.11344271   0.10653331   0.31219401  0.095302079   0.10197559   0.10913702   0.30641468 
    3740   -293344.13         1100  0.092727473   0.11329137   0.10624444   0.31226329  0.095429357   0.10181279   0.10961014   0.30685229 
    3750   -293314.84         1100  0.093233003   0.11310137     0.105983   0.31231737  0.095603618    0.1016759   0.11000085   0.30728036 
    3760   -293291.48         1100  0.093731344   0.11287842   0.10581799   0.31242775  0.095820394   0.10159085   0.11029684   0.30770809 
    3770    -293259.8         1100  0.094218106   0.11263088   0.10564512   0.31249411  0.096077175   0.10158325   0.11048307    0.3081435 
    3780   -293228.34         1100  0.094689177   0.11236524    0.1055096   0.31256401  0.096368972    0.1016728   0.11055255   0.30859432 
    3790   -293199.03         1100  0.095141348   0.11208066   0.10549192   0.31271393  0.096696825   0.10187377   0.11051275   0.30908334 
    3800   -293184.58         1100  0.095566458   0.11177841   0.10544145   0.31278632  0.097061268   0.10216745   0.11038593   0.30961465 
    3810   -293178.92    1099.1933  0.095957527   0.11146496   0.10550512   0.31292761  0.097457439   0.10252224   0.11020652    0.3101862 
    3820   -293177.13         1100  0.096311872   0.11114451   0.10554462     0.313001  0.097885202   0.10292543   0.11001333   0.31082396 
    3830   -293178.01    1100.0908  0.096630367   0.11081951   0.10561974   0.31306961  0.098351426   0.10337337   0.10984938   0.31157418 
    3840   -293176.42    1099.8914  0.096913151   0.11049694   0.10576931   0.31317939  0.098860594   0.10385736   0.10974921   0.31246717 
    3850   -293179.73    1100.3527  0.097157022   0.11018368   0.10590445   0.31324515  0.099410636   0.10437387   0.10973711   0.31352162 
    3860   -293182.45    1100.7216  0.097358464   0.10988291   0.10607026   0.31331163  0.099999598   0.10492522   0.10982655   0.31475136 
    3870   -293179.02    1100.3303   0.09751206    0.1095925   0.10624124   0.31334581   0.10062775   0.10550326   0.11003774   0.31616875 
    3880   -293178.75    1100.3409  0.097612579   0.10931135   0.10640427    0.3133282    0.1012971   0.10608016   0.11037995    0.3177572 
    3890   -293178.89    1100.3849  0.097660841   0.10904071   0.10657691   0.31327846   0.10200999   0.10660808   0.11084674   0.31946481 
    3900   -293176.72    1100.1676  0.097657939   0.10878112   0.10672136   0.31316042   0.10276383   0.10706821   0.11142431   0.32125635 
    3910   -293183.41         1100  0.097605357   0.10853465   0.10688518   0.31302518   0.10355852   0.10745479   0.11208354   0.32309685 
    3920      -293200         1100  0.097506097   0.10830718   0.10704128   0.31285456   0.10439379   0.10777391   0.11279932   0.32496702 
    3930      -293218         1100  0.097366854   0.10810285   0.10715541   0.31262512    0.1052687   0.10803038   0.11355568   0.32685475 
    3940   -293228.53         1100  0.097201303   0.10792274   0.10730018   0.31242422   0.10618441   0.10821045   0.11433923   0.32873409 
    3950   -293232.15    1100.5037  0.097021116   0.10776657   0.10741854   0.31220622   0.10714367   0.10831156   0.11514485   0.33060007 
    3960   -293239.82         1100  0.096835086   0.10763156   0.10757615    0.3120428   0.10814739   0.10835366   0.11597191   0.33247297 
    3970   -293258.95         1100  0.096657029   0.10751176   0.10771839   0.31188719   0.10919246   0.10835264   0.11680759   0.33435269 
    3980   -293296.71         1100  0.096496225   0.10740361   0.10789961   0.31179944   0.11027144   0.10832455   0.11764115   0.33623714 
    3990   -293332.57         1100    0.0963547   0.10730144   0.10809986     0.311756   0.11137381   0.10830709   0.11847111   0.33815202 
    4000   -293356.97         1100  0.096232487   0.10719661   0.10830808   0.31173718   0.11248489    0.1083543   0.11929862   0.34013781 
    4010   -293383.41         1100  0.096131962   0.10709005   0.10856343   0.31178544   0.11358093   0.10848298   0.12011493   0.34217885 
    4020   -293406.52         1100  0.096049513   0.10699628   0.10881583   0.31186162    0.1146281   0.10868359   0.12091478   0.34422647 
    4030   -293426.26         1100  0.095980599   0.10692163   0.10909753   0.31199976   0.11560544   0.10894319   0.12168397    0.3462326 
    4040   -293432.97    1100.8548  0.095928636   0.10686644   0.10935865   0.31215372   0.11650041   0.10924933   0.12239687   0.34814662 
    4050   -293438.41         1100  0.095897044   0.10683367   0.10964811   0.31237883   0.11730581   0.10958786   0.12302463   0.34991829 
    4060   -293443.41    1100.6197  0.095886396   0.10682291    0.1099387     0.312648   0.11801385   0.10994889   0.12355192   0.35151466 
    4070   -293463.26         1100  0.095895712    0.1068308   0.11019719   0.31292371   0.11861929   0.11032406   0.12397689   0.35292024 
    4080   -293489.04         1100  0.095921941   0.10685128   0.11048378     0.313257   0.11912538   0.11070859   0.12429637   0.35413033 
    4090    -293503.6         1100  0.095959904   0.10687544   0.11074373   0.31357908   0.11955343   0.11110915   0.12450153   0.35516411 
    4100   -293508.22    1100.5861  0.096004604   0.10689415   0.11104125      0.31394   0.11991575   0.11154481   0.12459221   0.35605277 
    4110   -293501.46    1099.6904  0.096053832   0.10689997   0.11135314   0.31430695   0.12022174   0.11201862    0.1245751   0.35681546 
    4120   -293505.39    1100.1944  0.096109499   0.10688954    0.1116658   0.31466483   0.12048215   0.11251572   0.12445931   0.35745718 
    4130   -293520.75         1100  0.096172976   0.10686011   0.11200942   0.31504251   0.12070051   0.11303152   0.12425777   0.35798981 
    4140   -293545.91         1100  0.096242105   0.10680807   0.11235099   0.31540116   0.12088563   0.11356554   0.12398033    0.3584315 
    4150   -293573.63         1100  0.096315587   0.10673297   0.11267854   0.31572709    0.1210395   0.11412184    0.1236405   0.35880184 
    4160   -293596.29         1100  0.096398838   0.10663502   0.11298512   0.31601897   0.12115385   0.11470516     0.123254   0.35911301 
    4170    -293623.7         1100  0.096498787   0.10651416   0.11327917   0.31629212   0.12122157   0.11532127   0.12283477    0.3593776 
    4180   -293649.54         1100  0.096615303   0.10637342   0.11351264   0.31650136   0.12124055   0.11597321   0.12240524     0.359619 
    4190   -293681.12         1100  0.096747948   0.10621552   0.11375316   0.31671662   0.12121411   0.11665909   0.12197991   0.35985311 
    4200   -293700.88         1100  0.096901126    0.1060385   0.11389929   0.31683891   0.12114561    0.1173725   0.12157245   0.36009057 
    4210    -293715.4         1100  0.097078112   0.10584007   0.11401625   0.31693443    0.1210315   0.11810407   0.12119754   0.36033311 
    4220   -293741.49         1100  0.097276319   0.10562563   0.11417927   0.31708122   0.12087061   0.11882771   0.12085839   0.36055671 
    4230   -293761.85         1100   0.09749113   0.10540352   0.11424855    0.3171432    0.1206609   0.11951636   0.12054775   0.36072502 
    4240   -293777.18         1100  0.097720827   0.10518143   0.11439167   0.31729393   0.12039519   0.12015693    0.1202601   0.36081222 
    4250   -293792.32         1100  0.097967852   0.10496719    0.1144254   0.31736044   0.12006958   0.12073673   0.11999082   0.36079714 
    4260   -293801.24         1100  0.098233284   0.10476944   0.11457669   0.31757941   0.11968304   0.12123616   0.11973427   0.36065347 
    4270   -293804.23    1100.3481  0.098517069    0.1045922    0.1145765   0.31768577   0.11923168   0.12163106   0.11948477   0.36034751 
    4280   -293808.64    1100.9127  0.098821473   0.10443848   0.11456486   0.31782481   0.11870862   0.12191535    0.1192288   0.35985278 
    4290   -293813.49         1100  0.099144342   0.10431107    0.1147488   0.31820422   0.11810649   0.12209111   0.11895883   0.35915644 
    4300   -293811.27    1099.6805  0.099480808   0.10421601   0.11472859   0.31842541   0.11742166   0.12217081   0.11867995   0.35827243 
    4310   -293807.46    1099.1889  0.099828738   0.10415482   0.11498035    0.3189639   0.11666449   0.12216183   0.11839936   0.35722567 
    4320   -293806.37    1099.0548   0.10018767   0.10412269   0.11497756   0.31928792   0.11585122   0.12207419   0.11813546   0.35606087 
    4330   -293815.17     1100.214   0.10055429   0.10411705   0.11526366     0.319935   0.11498669   0.12192753   0.11791549   0.35482971 
    4340   -293818.19    1100.5892    0.1009185   0.10413583   0.11530071   0.32035505   0.11407157   0.12172749   0.11775828   0.35355734 
    4350   -293816.26      1100.34   0.10127227   0.10417856   0.11535812   0.32080896   0.11311559   0.12148705   0.11766733   0.35226997 
    4360    -293815.7    1100.2888   0.10160993   0.10424224   0.11568769   0.32153986   0.11213405   0.12121704   0.11764516   0.35099625 
    4370   -293824.67         1100   0.10192909   0.10432689    0.1157934   0.32204937   0.11114161   0.12093375   0.11769263   0.34976799 
    4380   -293836.45         1100   0.10222798   0.10443227   0.11592791   0.32258815    0.1101556   0.12062366   0.11780598   0.34858524 
    4390   -293838.95    1100.3607   0.10250963   0.10456065   0.11621327   0.32328356   0.10918303   0.12026716   0.11798557   0.34743576 
    4400    -293836.5    1100.0493   0.10278406   0.10471779   0.11642434    0.3239262   0.10822604   0.11985865   0.11822382   0.34630852 
    4410   -293820.04         1100   0.10305932   0.10490755   0.11669175   0.32465862   0.10729244   0.11937816   0.11850845   0.34517904 
    4420   -293803.19         1100   0.10334048   0.10513368   0.11698574    0.3254599    0.1063875   0.11879816   0.11883283   0.34401849 
    4430   -293789.23         1100   0.10362829   0.10539879   0.11732353    0.3263506   0.10551557   0.11812327   0.11918907   0.34282791 
    4440   -293786.31    1099.6171   0.10391996   0.10569792   0.11770895   0.32732682   0.10468263   0.11737148   0.11956171   0.34161582 
    4450   -293789.76    1100.0788   0.10421261   0.10602498   0.11814205   0.32837963   0.10389639   0.11655784   0.11993201   0.34038624 
    4460   -293779.73         1100   0.10450326   0.10637573   0.11859039   0.32946938   0.10316159   0.11569732   0.12027157   0.33913049 
    4470   -293760.27         1100   0.10478931   0.10674861   0.11912219   0.33066011   0.10247719   0.11481281   0.12054585   0.33783585 
    4480   -293735.03         1100   0.10506888   0.10714347   0.11960402   0.33181637   0.10183993   0.11391364    0.1207344   0.33648797 
    4490   -293704.88         1100     0.105341   0.10756387   0.12024327   0.33314813   0.10125205    0.1130124   0.12082146   0.33508591 
    4500   -293673.06         1100   0.10560721   0.10801465   0.12077994    0.3344018   0.10071128   0.11215164   0.12080042   0.33366335 
    4510   -293629.35         1100   0.10586903       0.1085    0.1215115   0.33588053   0.10022243   0.11135938   0.12067065   0.33225246 
    4520   -293582.83         1100   0.10612715   0.10901538   0.12227239   0.33741492  0.099793057    0.1106478    0.1204312   0.33087206 
    4530   -293545.39         1100   0.10638628   0.10955839   0.12291883    0.3388635  0.099444654   0.11002531    0.1200912   0.32956117 
    4540   -293506.99         1100   0.10665221   0.11012322   0.12371508   0.34049051  0.099213227    0.1094989   0.11966186     0.328374 
    4550   -293465.36         1100   0.10692927   0.11070163   0.12451349   0.34214438  0.099122241   0.10906986    0.1191612    0.3273533 
    4560   -293422.74         1100    0.1072207   0.11128742   0.12530166   0.34380978  0.099173239   0.10873137   0.11861897   0.32652357 
    4570   -293378.02         1100   0.10752372    0.1118734   0.12607355   0.34547067  0.099366275   0.10845353   0.11804411   0.32586392 
    4580   -293322.15         1100   0.10783107   0.11245581   0.12697856   0.34726544  0.099692816   0.10821123    0.1174419   0.32534595 
    4590   -293269.94         1100   0.10813343   0.11302728   0.12770925   0.34886997   0.10013645    0.1080173   0.11681982   0.32497356 
    4600   -293231.32         1100    0.1084227   0.11357688   0.12860898   0.35060856   0.10067775   0.10788909   0.11618796    0.3247548 
    4610   -293214.45         1100   0.10869159    0.1140981   0.12928828   0.35207798   0.10129767   0.10783279   0.11555601   0.32468647 
    4620   -293219.72    1100.6325   0.10893524   0.11458796   0.12992887   0.35345207   0.10198321   0.10784518   0.11493052   0.32475891 
    4630   -293221.49    1100.8054   0.10915781   0.11503688   0.13070319   0.35489788   0.10273102   0.10791319   0.11431471   0.32495893 
    4640   -293215.15    1099.9718   0.10936244   0.11544012    0.1312635   0.35606607   0.10354449   0.10803279   0.11372002    0.3252973 
    4650   -293215.56    1100.0108   0.10954458   0.11579689   0.13187835   0.35721982   0.10442094   0.10821013   0.11315945   0.32579052 
    4660   -293226.52         1100    0.1096976   0.11611063   0.13236079   0.35816901   0.10535453   0.10849461   0.11264712   0.32649626 
    4670   -293242.74         1100   0.10982015   0.11638411   0.13280577   0.35901003   0.10633623    0.1089155    0.1122097   0.32746143 
    4680   -293274.09         1100    0.1099119   0.11662187   0.13323953   0.35977331   0.10735747   0.10948631   0.11187281   0.32871659 
    4690   -293314.65         1100   0.10997155   0.11683174   0.13360954   0.36041283   0.10841768   0.11021834   0.11165087   0.33028689 
    4700   -293347.48         1100    0.1099983   0.11702286   0.13390052   0.36092168   0.10951817   0.11112187   0.11155755   0.33219759 
    4710   -293372.22         1100   0.10999153   0.11719983   0.13419144   0.36138281   0.11066735   0.11220149   0.11160036    0.3344692 
    4720   -293390.98         1100   0.10994971   0.11736262   0.13437215   0.36168447   0.11187492   0.11344037   0.11177473   0.33709003 
    4730   -293404.64         1100   0.10987873   0.11750474   0.13456461   0.36194807   0.11314572   0.11478984   0.11206833   0.34000388 
    4740   -293419.45         1100   0.10979466   0.11761424    0.1346995    0.3621084   0.11447115   0.11621202   0.11247341   0.34315658 
    4750   -293435.98         1100   0.10970695   0.11768382     0.134701   0.36209177   0.11584533   0.11768563   0.11298403   0.34651498 
    4760   -293451.22         1100   0.10962171   0.11770406   0.13476819   0.36209396   0.11725239   0.11917965   0.11359343   0.35002548 
    4770    -293459.7         1100    0.1095474   0.11766384    0.1346637   0.36187494   0.11866049   0.12066574   0.11429398   0.35362021 
    4780   -293471.06         1100   0.10949175   0.11755955   0.13470176   0.36175306   0.12003665   0.12212824   0.11507581    0.3572407 
    4790   -293487.83         1100   0.10946035   0.11739724   0.13472675   0.36158434   0.12135165   0.12356154   0.11592813   0.36084133 
    4800   -293505.37         1100   0.10945915   0.11718155   0.13456415   0.36120485    0.1225861    0.1249589   0.11684274   0.36438773 
    4810   -293518.12         1100   0.10949572   0.11691364   0.13456248   0.36097184   0.12372882   0.12630877   0.11781315   0.36785074 
    4820   -293529.62         1100   0.10957805   0.11659448   0.13455405   0.36072658   0.12477002   0.12759994   0.11883086   0.37120082 
    4830   -293538.21         1100    0.1097152   0.11622888   0.13452989   0.36047397   0.12570255   0.12882721   0.11988528   0.37441504 
    4840   -293536.97    1099.8598   0.10991472   0.11582708   0.13451008   0.36025188   0.12652727   0.12999173   0.12095679    0.3774758 
    4850   -293524.88         1100   0.11017628   0.11539892   0.13448937   0.36006457    0.1272517   0.13106958   0.12201558   0.38033687 
    4860   -293518.68    1099.2148   0.11049984   0.11494809   0.13449007   0.35993799   0.12788213   0.13202647   0.12304458   0.38295317 
    4870   -293518.24    1099.1666   0.11088851    0.1144728   0.13452812   0.35988943   0.12842026   0.13284268   0.12404422   0.38530716 
    4880   -293517.81     1099.076   0.11133433   0.11397638   0.13454872   0.35985943   0.12887563   0.13351175   0.12501525   0.38740263 
    4890   -293507.23         1100   0.11182895   0.11346489   0.13457493   0.35986877   0.12925843   0.13403324   0.12594822   0.38923988 
    4900   -293489.76         1100   0.11236793   0.11293984   0.13469326   0.36000102   0.12957206    0.1344077   0.12682786   0.39080761 
    4910   -293478.23         1100   0.11294832   0.11239621   0.13471345   0.36005797   0.12981565   0.13462067   0.12763182   0.39206814 
    4920      -293471    1099.0621   0.11356731   0.11183105   0.13487444    0.3602728   0.12999025   0.13465552   0.12834493   0.39299069 
    4930   -293464.33         1100   0.11421741   0.11125435   0.13486098   0.36033273    0.1301072   0.13450863   0.12897255   0.39358838 
    4940   -293456.37         1100   0.11489509   0.11067195   0.13505219   0.36061922   0.13017887   0.13418552   0.12951202   0.39387641 
    4950   -293448.23         1100   0.11560192   0.11008547   0.13498834   0.36067573   0.13021322   0.13370295   0.12996483     0.393881 
    4960   -293437.23         1100   0.11633476   0.10949443   0.13488999   0.36071917    0.1302141   0.13308406   0.13034083   0.39363898 
    4970   -293429.82    1099.0257   0.11708479    0.1089012   0.13508653   0.36107252   0.13018387   0.13235889   0.13065063   0.39319339 
    4980    -293423.9         1100   0.11784148   0.10830861   0.13491123   0.36106131   0.13012706    0.1315595   0.13091259   0.39259915 
    4990   -293423.61    1099.9563   0.11859592   0.10771655    0.1351396   0.36145206   0.13004867   0.13071287   0.13115706    0.3919186 
    5000   -293441.29         1100   0.11933961   0.10712013   0.13487614   0.36133588   0.12994858    0.1298378   0.13141485   0.39120123 
    5010   -293468.27         1100   0.12006199   0.10651066   0.13457314   0.36114578   0.12982457   0.12893876   0.13170194   0.39046527 
    5020   -293483.81         1100     0.120751   0.10589342    0.1345961   0.36124052   0.12968361    0.1280251   0.13201869    0.3897274 
    5030   -293490.22    1100.8317    0.1213973   0.10527411   0.13425157   0.36092298   0.12953092   0.12710742   0.13235869   0.38899704 
    5040   -293506.41         1100    0.1219976   0.10465629   0.13403344   0.36068733   0.12937091   0.12620076    0.1327095   0.38828117 
    5050   -293535.31         1100   0.12255624   0.10403823   0.13367094   0.36026541   0.12921246   0.12531709    0.1330564   0.38758594 
    5060   -293573.57         1100   0.12307325   0.10341408   0.13330832   0.35979565   0.12906757   0.12446017   0.13339701   0.38692475 
    5070    -293604.2         1100   0.12353718   0.10280041   0.13283942   0.35917701    0.1289514   0.12365285   0.13373248   0.38633672 
    5080   -293628.47         1100    0.1239372   0.10221276   0.13248042   0.35863038   0.12887813   0.12291038   0.13406652   0.38585503 
    5090   -293645.88         1100   0.12426774      0.10165   0.13177985   0.35769759   0.12884995   0.12223528   0.13439567    0.3854809 
    5100   -293660.05         1100   0.12452767   0.10110931   0.13144378   0.35708076   0.12886788   0.12162116   0.13472559   0.38521463 
    5110   -293666.58    1100.9246   0.12472182   0.10059001   0.13112434   0.35643617   0.12892657   0.12106219   0.13505573    0.3850445 
    5120   -293670.12         1100    0.1248558   0.10009387   0.13023103   0.35518071   0.12900899   0.12055888   0.13535561   0.38492348 
    5130   -293675.74    1100.7537   0.12493095  0.099623339   0.12993071   0.35448499   0.12910244   0.12010758   0.13560441   0.38481443 
    5140   -293677.38    1100.9663   0.12495016  0.099178096   0.12892541   0.35305367   0.12919661   0.11970525   0.13579163    0.3846935 
    5150      -293671    1100.1843   0.12492336  0.098752045   0.12862942   0.35230482   0.12928052   0.11934799   0.13589583   0.38452433 
    5160   -293670.39    1100.1151   0.12485962  0.098339381   0.12834171   0.35154071   0.12934486    0.1190269   0.13590278   0.38427454 
    5170   -293677.61         1100   0.12476939  0.097936545    0.1278806   0.35058654   0.12937869   0.11872668   0.13580495   0.38391033 
    5180   -293682.43    1100.6744   0.12466401  0.097543294   0.12763025   0.34983755   0.12937683    0.1184404   0.13560151   0.38341874 
    5190   -293690.19         1100   0.12454884  0.097158631   0.12723337   0.34894084   0.12934688   0.11816055   0.13528814   0.38279557 
    5200   -293707.81         1100   0.12442813  0.096784794   0.12705444   0.34826736   0.12929064   0.11787692   0.13485983   0.38202739 
    5210   -293726.97         1100   0.12430836  0.096425536   0.12672727   0.34746117   0.12920402     0.117582   0.13431465   0.38110067 
    5220   -293737.47         1100   0.12419208   0.09608723   0.12661929   0.34689861   0.12908144   0.11728095   0.13365609   0.38001848 
    5230   -293746.23         1100   0.12407836   0.09577753   0.12654561   0.34640149   0.12891402   0.11700013   0.13288818   0.37880233 
    5240   -293747.27    1100.1358   0.12396796  0.095499371    0.1264066   0.34587394   0.12869816    0.1167525   0.13202239   0.37747306 
    5250   -293755.88         1100   0.12386481  0.095248028   0.12641601   0.34552885   0.12843903   0.11652869    0.1310822   0.37604992 
    5260   -293767.76         1100   0.12377217  0.095018007   0.12657762    0.3453678   0.12814845    0.1163153   0.13009168   0.37455544 
    5270   -293769.64    1100.2069   0.12369143  0.094806677   0.12665884   0.34515695   0.12784293    0.1160996   0.12906739   0.37300992 
    5280   -293754.93         1100   0.12362324  0.094612082   0.12677077   0.34500609    0.1275371   0.11586747   0.12801571   0.37142028 
    5290   -293735.39         1100    0.1235668  0.094434916   0.12719721   0.34519893    0.1272414   0.11559208   0.12694454   0.36977802 
    5300    -293719.3         1100   0.12352012  0.094281408   0.12734375   0.34514528   0.12696208   0.11525179   0.12586098   0.36807485 
    5310   -293709.78         1100   0.12348347  0.094158288   0.12792716   0.34556892   0.12669804   0.11484374   0.12476586   0.36630764 
    5320   -293701.33         1100   0.12346609  0.094061661   0.12808737   0.34561512   0.12644566   0.11437362   0.12367037   0.36448965 
    5330   -293682.34         1100   0.12347697  0.093983714   0.12823993   0.34570062   0.12620138   0.11384615    0.1225955   0.36264303 
    5340   -293645.02         1100   0.12351925  0.093923885   0.12884887     0.346292   0.12596318    0.1132535   0.12155502   0.36077169 
    5350   -293611.74         1100   0.12359101  0.093889572   0.12896892   0.34644949   0.12573481   0.11259587   0.12055653   0.35888721 
    5360   -293597.15         1100   0.12368554  0.093888385   0.12958323   0.34715716   0.12552092   0.11188576   0.11960933   0.35701601 
    5370   -293599.45    1100.2764     0.123787  0.093917667   0.12967147   0.34737614   0.12532661   0.11113632   0.11872735   0.35519028 
    5380   -293605.72         1100   0.12388329  0.093974613   0.12975436   0.34761226   0.12516046   0.11036695   0.11791902   0.35344643 
    5390   -293608.27    1100.2966   0.12396374   0.09405653   0.13035441   0.34837468   0.12501288   0.10959566   0.11717727   0.35178581 
    5400   -293612.26    1100.7649   0.12401625   0.09416202    0.1304266   0.34860486    0.1248611   0.10884247   0.11649683    0.3502004 
    5410   -293625.47         1100   0.12403892  0.094292927   0.13102426    0.3493561   0.12469687   0.10813557   0.11588705   0.34871949 
    5420   -293639.48         1100   0.12403308  0.094450472   0.13112462   0.34960817   0.12451822    0.1074926   0.11536586   0.34737667 
    5430   -293657.91         1100   0.12400227  0.094632847   0.13170453   0.35033964   0.12432675   0.10691825   0.11493766   0.34618266 
    5440   -293673.73         1100    0.1239567  0.094833569   0.13184932   0.35063959   0.12412502   0.10641776   0.11458887   0.34513165 
    5450   -293683.53         1100   0.12390243  0.095050842   0.13231994   0.35127321   0.12391577   0.10600033   0.11430913   0.34422523 
    5460   -293690.59    1100.9098   0.12383643  0.095281681   0.13249266   0.35161077   0.12369911   0.10567245   0.11409246   0.34346402 
    5470    -293693.9         1100   0.12376052  0.095523288   0.13268406   0.35196786   0.12347342   0.10544392   0.11392982   0.34284716 
    5480   -293691.97    1099.7518   0.12368272  0.095774815   0.13301895   0.35247649   0.12324708   0.10532044   0.11380757   0.34237509 
    5490    -293680.1         1100   0.12361241  0.096037824   0.13325187   0.35290211   0.12304752       0.1053   0.11371938   0.34206691 
    5500   -293668.29         1100   0.12355254  0.096315255   0.13352748   0.35339528   0.12289738    0.1053822   0.11367424   0.34195382 
    5510   -293660.54         1100   0.12350027  0.096614721   0.13382092    0.3539359   0.12281799   0.10557668   0.11368852   0.34208319 
    5520   -293655.56    1099.3508   0.12344986  0.096944399   0.13414757   0.35454183   0.12283714   0.10590053   0.11377246   0.34251013 
    5530   -293652.19         1100   0.12340103  0.097306521   0.13440661   0.35511416   0.12298146   0.10636003   0.11392825   0.34326974 
    5540   -293639.82         1100   0.12335729   0.09770128   0.13478469   0.35584325   0.12327288   0.10694932   0.11415324   0.34437544 
    5550   -293618.56         1100   0.12332014  0.098128429   0.13498682    0.3564354   0.12372495   0.10764463   0.11444331   0.34581288 
    5560   -293601.16         1100   0.12329079  0.098583151   0.13535491   0.35722885   0.12432614   0.10839823   0.11480066   0.34752503 
    5570   -293584.89         1100   0.12326572  0.099051662   0.13539098   0.35770835   0.12504497   0.10917475   0.11521987   0.34943959 
    5580    -293571.9         1100   0.12324194  0.099519069    0.1357189    0.3584799   0.12585443   0.10995073   0.11568459   0.35148975 
    5590   -293549.25         1100   0.12322963  0.099979566   0.13548229   0.35869148   0.12673967   0.11070079    0.1161873   0.35362776 
    5600    -293514.9         1100   0.12323687   0.10043238   0.13576181   0.35943107   0.12768453   0.11140953   0.11672809   0.35582215 
[...]
  248670   -293606.98         1100   0.69652508   0.93619691    0.9059815    2.5387035   0.83919194   0.81809466   0.77409464    2.4313812 
  248680   -293584.55         1100   0.69504506   0.93585477   0.90499232    2.5358921   0.83974481   0.82028326   0.77599407    2.4360221 
  248690   -293555.96         1100   0.69348297   0.93548743   0.90405837    2.5330288    0.8403379   0.82233842   0.77764298    2.4403193 
  248700   -293534.72         1100   0.69185389   0.93510814   0.90308936    2.5300514   0.84095014   0.82424409   0.77901578      2.44421 
  248710   -293522.83         1100   0.69017465   0.93472982   0.90216502    2.5270695      0.84155   0.82599405   0.78012793     2.447672 
  248720   -293517.44    1099.2959   0.68844585   0.93437402   0.90127527    2.5240951   0.84212872   0.82756901   0.78099232      2.45069 
  248730   -293506.57         1100   0.68666546   0.93405169   0.90039621    2.5211134   0.84268937   0.82892372   0.78157123    2.4531843 
  248740   -293497.69         1100    0.6848471   0.93375068   0.89958254    2.5181803   0.84324484   0.83001821   0.78180014    2.4550632 
  248750   -293503.25    1100.7559   0.68299615   0.93346665   0.89877853    2.5152413   0.84383563    0.8308374   0.78167685    2.4563499 
  248760   -293505.94         1100   0.68111289   0.93319417   0.89805703    2.5123641   0.84448554   0.83138912   0.78120435     2.457079 
  248770   -293502.86    1099.6219   0.67920171   0.93293406   0.89739308    2.5095288   0.84520732   0.83169568   0.78040205     2.457305 
  248780   -293502.99    1099.6274   0.67727184   0.93269232   0.89679648    2.5067606   0.84599992   0.83177959   0.77931438    2.4570939 
  248790   -293505.49    1099.9353    0.6753375   0.93247158   0.89625094      2.50406   0.84684692    0.8316449   0.77800025    2.4564921 
  248800   -293518.33         1100   0.67341211   0.93227341   0.89583088    2.5015164   0.84771956   0.83129456   0.77653163    2.4555458 
  248810   -293532.79         1100   0.67150735   0.93210989   0.89540353    2.4990208   0.84859635   0.83073998   0.77501872     2.454355 
  248820   -293556.77         1100   0.66963357   0.93198982   0.89503835    2.4966617   0.84945268   0.82999168   0.77355391    2.4529983 
  248830   -293579.18         1100   0.66780165   0.93192004   0.89482854    2.4945502   0.85022428   0.82906465   0.77222381    2.4515127 
  248840   -293584.29    1100.6411   0.66602801   0.93189989   0.89460149    2.4925294   0.85084843   0.82797189   0.77110494    2.4499253 
  248850   -293592.58         1100   0.66433254   0.93191906   0.89453303    2.4907846   0.85130098   0.82671071   0.77020258    2.4482143 
  248860   -293600.95         1100   0.66272112   0.93196245   0.89444866    2.4891322      0.85159   0.82526809   0.76947799    2.4463361 
  248870   -293609.24         1100   0.66119603   0.93202007   0.89442085    2.4876369   0.85172041      0.82365   0.76889138    2.4442618 
  248880   -293624.13         1100    0.6597679   0.93208731   0.89449228    2.4863475   0.85167402    0.8218834   0.76841929    2.4419767 
  248890   -293655.84         1100   0.65844402   0.93216244   0.89460162    2.4852081   0.85141983   0.82000276   0.76805799    2.4394806 
  248900   -293705.16         1100   0.65722107   0.93224209   0.89472984     2.484193   0.85094298   0.81804472   0.76781814    2.4368058 
  248910   -293758.62         1100   0.65609383   0.93232573    0.8949909    2.4834105   0.85026094   0.81603162   0.76771126    2.4340038 
  248920   -293802.92         1100   0.65506658   0.93240699   0.89525299    2.4827266   0.84947694   0.81393791   0.76772104    2.4311359 
  248930   -293840.91         1100   0.65414047   0.93247398   0.89570595    2.4823204   0.84872503   0.81175314   0.76784503    2.4283232 
  248940   -293868.42         1100   0.65331442   0.93252968   0.89626108    2.4821052   0.84806532   0.80950141   0.76809907    2.4256658 
  248950   -293902.21         1100   0.65258611   0.93258544   0.89683747     2.482009   0.84751852    0.8072264   0.76852693    2.4232718 
  248960   -293937.32         1100   0.65195468   0.93264153    0.8975928     2.482189   0.84709759   0.80498729   0.76916574    2.4212506 
  248970   -293965.19         1100   0.65142064   0.93267067   0.89842533    2.4825166   0.84680808    0.8028544   0.77001067    2.4196732 
  248980   -293977.73         1100   0.65096854    0.9326512   0.89935108    2.4829708   0.84664608   0.80091338   0.77107623    2.4186357 
  248990    -293990.6         1100    0.6505769   0.93257419   0.90035824    2.4835093   0.84660566   0.79921753   0.77237237    2.4181956 
  249000   -293991.55    1100.1466   0.65023428   0.93243458   0.90137026    2.4840391   0.84666109   0.79775567   0.77386398    2.4182807 
  249010   -293982.54         1100   0.64993441   0.93223456   0.90235451    2.4845235   0.84678196   0.79649319   0.77550223    2.4187774 
  249020   -293970.85         1100   0.64967364   0.93198234   0.90334924    2.4850052   0.84695066   0.79540231   0.77723725    2.4195902 
  249030   -293965.35    1099.2814   0.64944896   0.93168541   0.90423866     2.485373    0.8471645   0.79447065   0.77901152    2.4206467 
  249040   -293958.63         1100   0.64926472   0.93134188   0.90516327    2.4857699   0.84741569   0.79369226   0.78075514    2.4218631 
  249050   -293945.02         1100   0.64912567   0.93094451   0.90604106    2.4861112   0.84767939   0.79305488   0.78240239    2.4231367 
  249060   -293929.51         1100   0.64903009   0.93048903   0.90675917    2.4862783   0.84792654   0.79255473   0.78390265    2.4243839 
  249070   -293908.86         1100   0.64897396   0.92998186   0.90754399    2.4864998   0.84814509   0.79220117   0.78522389    2.4255702 
  249080   -293875.84         1100   0.64895317   0.92941909     0.908173    2.4865453   0.84833792   0.79200435   0.78633906    2.4266813 
  249090   -293841.44         1100   0.64896232   0.92878941   0.90886853    2.4866203   0.84851531   0.79198077   0.78724543    2.4277415 
  249100   -293809.56         1100    0.6490028   0.92808816   0.90942306     2.486514   0.84866503   0.79214307   0.78796321    2.4287713 
  249110   -293788.17         1100   0.64908271   0.92732675   0.90999426    2.4864037   0.84875448   0.79249083   0.78849611    2.4297414 
  249120   -293780.56         1100   0.64920729   0.92651962   0.91043975    2.4861667   0.84875621   0.79301745   0.78882167    2.4305953 
  249130   -293775.74    1099.3606   0.64938016   0.92568504   0.91082062    2.4858858   0.84863777   0.79372136   0.78887948    2.4312386 
  249140   -293771.02         1100   0.64959683   0.92484134   0.91108729    2.4855255   0.84836454   0.79461036   0.78860391    2.4315788 
  249150   -293773.92    1100.3694   0.64984341   0.92399983    0.9112343    2.4850775   0.84791406   0.79569632   0.78795136    2.4315617 
  249160   -293776.36    1100.7007   0.65010824   0.92315702   0.91127931    2.4845446   0.84727149   0.79698585   0.78688853    2.4311459 
  249170   -293784.21         1100   0.65038258   0.92228691   0.91123466    2.4839042   0.84642718   0.79848262   0.78540648    2.4303163 
  249180   -293804.84         1100     0.650653   0.92139292   0.91110802    2.4831539   0.84537644   0.80019494   0.78353652    2.4291079 
  249190   -293829.97         1100   0.65091425   0.92049258   0.91089896    2.4823058   0.84412101   0.80212789   0.78134118    2.4275901 
  249200   -293851.87         1100   0.65118832   0.91959415   0.91060321    2.4813857    0.8426556   0.80426786   0.77889228    2.4258157 
  249210   -293887.97         1100   0.65150342   0.91870742   0.91021358    2.4804244   0.84097849   0.80657435   0.77624808    2.4238009 
  249220   -293932.95         1100   0.65187677   0.91784482    0.9097367    2.4794583   0.83911031   0.80899446   0.77346537    2.4215701 
  249230   -293982.83         1100   0.65231071   0.91701614   0.90918297    2.4785098   0.83708277   0.81147917   0.77060063    2.4191626 
  249240   -294026.63         1100   0.65279505   0.91622829   0.90856122    2.4775846   0.83494158   0.81398594   0.76769659    2.4166241 
  249250   -294049.75         1100   0.65331035   0.91549249   0.90788209    2.4766849   0.83272697   0.81647428   0.76477606    2.4139773 
  249260    -294058.1         1100   0.65383563   0.91483518   0.90714472    2.4758155   0.83046542   0.81889789   0.76185517    2.4112185 
  249270   -294051.02    1099.0591   0.65436067   0.91427756   0.90634678     2.474985   0.82817625   0.82119049   0.75892834    2.4082951 
  249280   -294037.02         1100   0.65487875   0.91381115   0.90549074    2.4741806   0.82586687   0.82326007    0.7559718    2.4050987 
  249290   -294020.47         1100   0.65538615   0.91342808   0.90457379     2.473388   0.82351935   0.82502848   0.75299503    2.4015429 
  249300      -293992         1100   0.65588557    0.9131198   0.90360825    2.4726136   0.82111364   0.82644301   0.75003376    2.3975904 
  249310   -293952.59         1100   0.65636751   0.91287134   0.90263044    2.4718693   0.81864224   0.82748266   0.74712792    2.3932528 
  249320   -293904.69         1100    0.6567966   0.91268063   0.90167084    2.4711481   0.81611185   0.82815303   0.74433236    2.3885972 
  249330   -293855.95         1100   0.65713414   0.91255931    0.9007685     2.470462   0.81354962   0.82846546   0.74171773    2.3837328 
  249340   -293818.65         1100   0.65736237   0.91251362   0.89991025    2.4697862   0.81097936   0.82843983   0.73936242    2.3787816 
  249350    -293782.7         1100   0.65747603   0.91255159   0.89914678    2.4691744   0.80840665   0.82811783     0.737343    2.3738675 
  249360   -293741.93         1100    0.6574683   0.91267796   0.89840383    2.4685501   0.80583456   0.82754443   0.73569097    2.3690699 
  249370   -293707.73         1100   0.65732997    0.9128988   0.89776555    2.4679943   0.80326302   0.82675867   0.73440566    2.3644274 
  249380   -293684.35         1100   0.65705761   0.91322725   0.89711459    2.4673995    0.8006874   0.82579545    0.7334815    2.3599644 
  249390    -293682.7    1099.7264   0.65665137   0.91367983   0.89651947    2.4668507   0.79810997   0.82468214    0.7329086    2.3557007 
  249400   -293686.06    1100.1387   0.65611464   0.91426712   0.89608378    2.4664655    0.7955503   0.82343509   0.73265646    2.3516418 
  249410   -293684.82    1099.9726   0.65545593    0.9149775   0.89566142    2.4660948   0.79304396   0.82207029   0.73267883    2.3477931 
  249420   -293693.69         1100   0.65468465   0.91579068   0.89542956    2.4659049   0.79065504   0.82067479    0.7329513    2.3442811 
  249430   -293716.13         1100   0.65381451   0.91669495   0.89519083    2.4657003   0.78844552   0.81925988   0.73345167    2.3411571 
  249440   -293740.35         1100   0.65286384   0.91768464   0.89510288    2.4656514   0.78644932   0.81783474   0.73415651    2.3384406 
  249450   -293759.44         1100   0.65185797   0.91875175   0.89497187    2.4655816   0.78466716   0.81640743   0.73504641     2.336121 
  249460   -293768.95         1100   0.65082563   0.91986037   0.89487302     2.465559   0.78309689   0.81496638    0.7361028    2.3341661 
  249470   -293772.21    1100.3906   0.64979047   0.92098463   0.89488539    2.4656605    0.7817481    0.8135082   0.73730151    2.3325578 
  249480   -293769.33    1099.9772   0.64876972   0.92211185   0.89484951    2.4657311   0.78062666    0.8120316   0.73861484    2.3312731 
  249490   -293760.28         1100   0.64777474   0.92322894   0.89494271    2.4659464   0.77973182    0.8105292   0.74000568    2.3302667 
  249500   -293740.93         1100   0.64681233   0.92432235   0.89500828     2.466143   0.77905633    0.8089848   0.74142174    2.3294629 
  249510   -293716.78         1100   0.64589086   0.92538848   0.89522336    2.4665027    0.7785979   0.80737393   0.74280583    2.3287777 
  249520   -293691.03         1100   0.64501858   0.92643454   0.89540504    2.4668582    0.7783554   0.80567732   0.74411145    2.3281442 
  249530   -293664.15         1100   0.64420175   0.92745828   0.89569439    2.4673544   0.77832162   0.80389351   0.74530323    2.3275184 
  249540   -293635.36         1100   0.64344179   0.92845354   0.89593038    2.4678257   0.77851197   0.80204149   0.74636773    2.3269212 
  249550   -293604.25         1100   0.64273502   0.92941723   0.89615683    2.4683091   0.77895358   0.80015569   0.74730549    2.3264148 
  249560   -293576.73         1100   0.64207863   0.93034359    0.8964039    2.4688261   0.77965204   0.79827796   0.74810978    2.3260398 
  249570   -293553.16         1100    0.6414794   0.93122808     0.896559    2.4692665   0.78058361   0.79633584   0.74877465    2.3256941 
  249580    -293536.2         1100     0.640948   0.93206502   0.89676536    2.4697784   0.78171744   0.79427571   0.74929299    2.3252861 
  249590   -293522.62         1100   0.64048757   0.93284864   0.89679601    2.4701322   0.78301444    0.7921079   0.74963691    2.3247593 
  249600   -293522.26    1100.0072    0.6400964   0.93357342   0.89687242    2.4705422    0.7844311   0.78984066   0.74978856    2.3240603 
  249610   -293541.52         1100   0.63977387   0.93422877   0.89679862    2.4708013   0.78593359   0.78748271   0.74974997    2.3231663 
  249620   -293566.83         1100     0.639519   0.93480225   0.89667781    2.4709991   0.78748668   0.78504834   0.74952354    2.3220586 
  249630    -293594.7         1100   0.63933089   0.93528288   0.89651019     2.471124    0.7890645   0.78254766   0.74911322    2.3207254 
  249640   -293620.54         1100   0.63921028   0.93565521   0.89632091    2.4711864   0.79065769   0.78002186   0.74853797    2.3192175 
  249650   -293633.51         1100   0.63916801   0.93590464   0.89600694    2.4710796   0.79226461   0.77758219   0.74782136    2.3176682 
  249660   -293636.21     1100.372    0.6392201   0.93603501    0.8957423    2.4709974   0.79387152   0.77524952   0.74699958    2.3161206 
  249670   -293644.25         1100   0.63937435   0.93605638   0.89530819    2.4707389   0.79546688   0.77306368   0.74611884    2.3146494 
  249680   -293660.92         1100   0.63963907   0.93596791   0.89497133    2.4705783   0.79704237   0.77106675    0.7452137    2.3133228 
  249690   -293686.62         1100   0.64003037   0.93573962   0.89447801     2.470248   0.79859223   0.76927924   0.74431311    2.3121846 
  249700   -293723.57         1100   0.64055357   0.93534946   0.89413809    2.4700411   0.80010666   0.76772125   0.74342876    2.3112567 
  249710    -293760.1         1100   0.64120367   0.93479324   0.89380267    2.4697996    0.8015832   0.76641385   0.74256669    2.3105637 
  249720   -293797.26         1100   0.64197722   0.93407373   0.89333642    2.4693874   0.80301726   0.76537649   0.74173885    2.3101326 
  249730   -293821.77         1100   0.64287672   0.93320288   0.89301265    2.4690922   0.80438337   0.76462564   0.74096531    2.3099743 
  249740   -293838.86         1100   0.64390433   0.93220643   0.89257624     2.468687   0.80564727    0.7641816   0.74026441    2.3100933 
  249750   -293864.12         1100   0.64504678   0.93111189   0.89223784    2.4683965   0.80678637   0.76406103   0.73966761     2.310515 
  249760    -293889.5         1100   0.64627949   0.92994124   0.89187643    2.4680972   0.80776463   0.76426928   0.73919529    2.3112292 
  249770   -293897.76         1100    0.6475816   0.92870764   0.89153073      2.46782   0.80857047   0.76479754   0.73886392    2.3122319 
  249780   -293900.68    1100.3627   0.64892649   0.92742918   0.89119395    2.4675496   0.80922217   0.76562492   0.73870021    2.3135473 
  249790   -293901.47    1100.4698   0.65027846   0.92613193   0.89103306    2.4674434   0.80972283   0.76672864   0.73871964    2.3151711 
  249800   -293894.42    1099.5403   0.65162322   0.92484399    0.8908118     2.467279   0.81006961   0.76808986   0.73887685    2.3170363 
  249810   -293885.46         1100   0.65296469   0.92359103   0.89092096    2.4674767    0.8102796   0.76969584   0.73909795    2.3190734 
  249820   -293878.71    1099.1338   0.65431167   0.92236978   0.89090316    2.4675846   0.81036153   0.77151752   0.73933878    2.3212178 
  249830   -293884.71    1099.8646   0.65567464   0.92117541   0.89099149    2.4678415   0.81032861   0.77351308   0.73957653    2.3234182 
  249840   -293886.13    1100.0272   0.65706486    0.9200049   0.89144315    2.4685129   0.81019959   0.77565192   0.73979355    2.3256451 
  249850   -293882.23    1099.4612   0.65849872   0.91885372   0.89171471    2.4690671   0.81001972   0.77788881   0.73999256    2.3279011 
  249860    -293863.8         1100   0.65997802    0.9177313   0.89194622    2.4696555    0.8098405   0.78015613   0.74019679    2.3301934 
  249870   -293828.24         1100   0.66149574   0.91665141   0.89227816    2.4704253   0.80967785   0.78239499   0.74042572    2.3324986 
  249880   -293776.77         1100   0.66304382   0.91562961   0.89247582    2.4711493   0.80954002   0.78456228   0.74068172     2.334784 
  249890    -293735.1         1100   0.66461022   0.91468634   0.89278987    2.4720864    0.8094544   0.78662677    0.7409451    2.3370263 
  249900   -293710.87         1100   0.66617782   0.91381056   0.89310027    2.4730886    0.8094279   0.78857061   0.74118678    2.3391853 
  249910   -293700.84         1100   0.66772091   0.91297692   0.89326104    2.4739589   0.80943607   0.79039199   0.74138302    2.3412111 
  249920   -293699.45     1099.841   0.66920629   0.91218244   0.89362011    2.4750088   0.80943365   0.79199285   0.74152006    2.3429466 
  249930   -293702.79    1100.2901   0.67060702   0.91146303   0.89385146    2.4759215   0.80939982   0.79328506   0.74159247    2.3442773 
  249940   -293711.09         1100    0.6719045    0.9108416   0.89429459    2.4770407   0.80932284   0.79422016   0.74159692    2.3451399 
  249950   -293728.17         1100   0.67310145   0.91031331    0.8947848    2.4781996   0.80922676   0.79476154   0.74153451    2.3455228 
  249960   -293749.98         1100   0.67421106    0.9098612   0.89520486    2.4792771   0.80914946   0.79490431   0.74141219     2.345466 
  249970    -293772.5         1100   0.67523989   0.90947601   0.89577452    2.4804904   0.80911069   0.79467271   0.74125986    2.3450433 
  249980   -293801.25         1100   0.67619084   0.90916334   0.89631649    2.4816707   0.80912621   0.79410307   0.74109908    2.3443284 
  249990   -293839.06         1100   0.67706534   0.90893505   0.89693552    2.4829359    0.8092114   0.79324284   0.74092824    2.3433825 
  250000   -293872.71         1100   0.67785821   0.90879647    0.8975555    2.4842102   0.80937738   0.79214757   0.74073888    2.3422638 
Loop time of 10693.1 on 32 procs for 250000 steps with 2577 atoms

Performance: 0.404 ns/day, 59.406 hours/ns, 23.379 timesteps/s
100.0% CPU use with 32 MPI tasks x no OpenMP threads

MPI task timing breakdown:
Section |  min time  |  avg time  |  max time  |%varavg| %total
---------------------------------------------------------------
Pair    | 5657.6     | 7311.1     | 9434.3     |1540.3 | 68.37
Neigh   | 61.466     | 89.231     | 115.89     | 251.7 |  0.83
Comm    | 47.504     | 1929.5     | 3817.6     |2674.7 | 18.04
Output  | 39.432     | 39.464     | 39.512     |   0.3 |  0.37
Modify  | 1047.4     | 1104.5     | 1200.8     | 164.6 | 10.33
Other   |            | 219.4      |            |       |  2.05

Nlocal:    80.5312 ave 99 max 65 min
Histogram: 2 2 6 4 5 5 3 1 2 2
Nghost:    1859.59 ave 2344 max 1393 min
Histogram: 12 4 0 0 0 0 0 0 6 10
Neighs:    24398.7 ave 34246 max 17832 min
Histogram: 7 6 1 3 4 1 2 4 0 4

Total # of neighbors = 780758
Ave neighs/atom = 302.972
Neighbor list builds = 10466
Dangerous builds = 0

Please see the log.cite file for references relevant to this simulation

Total wall time: 2:58:13
