LAMMPS (7 Aug 2019)
# Fe3O4 -- [0, 1, 0][1, 0, 0] grain boundary
# atom types: 1 -- Fe, 2 -- O
# units real: mass = g/mole; dist = Angstroms; time = fs;
# energy = Kcal/mole = 4184 J/mole

units 		real
dimension	3
atom_style	charge
neigh_modify	delay 5
neighbor	0.3 bin

#---------------------Geometry of the model------------------

variable a equal 6.1602
variable b equal 6.1877
variable c equal 6.1868

region box block 0 $(3*v_c) 0 42.4 0 40 units box
region box block 0 18.560400000000001342 0 42.4 0 40 units box
boundary	p p s
create_box 2 box
Created orthogonal box = (0 0 0) to (18.5604 42.4 40)
  1 by 2 by 1 MPI processor grid

read_data	coolannealedboundary.data	add append
  orthogonal box = (0 0 -0.004) to (18.5604 42.4 42.0202)
  1 by 2 by 1 MPI processor grid
  reading atoms ...
  2577 atoms
  reading velocities ...
  2577 velocities
  read_data CPU = 0.263542 secs

region boundary block -1000 1000 -1000 1000 17 23
group boundary region boundary
289 atoms in group boundary

#---------------Define potential and run minimization

pair_style	reax/c	NULL
pair_coeff	* *	ffield.reax.Fe_O_C_H Fe O
Reading potential file ffield.reax.Fe_O_C_H with DATE: 2011-02-18
fix             2 all qeq/reax 1 0.0 10.0 1e-6 reax/c

compute	  	T all temp
fix 		1 all nve
thermo		10
thermo_style 	custom etotal step dt

velocity	all create 900 239239239
#fix 		3 all temp/rescale 10 900 900 1 1.0

timestep 	0.05
run 20000
Neighbor list info ...
  update every 1 steps, delay 5 steps, check yes
  max neighbors/atom: 2000, page size: 100000
  master list distance cutoff = 10.3
  ghost atom cutoff = 10.3
  binsize = 5.15, bins = 4 9 9
  2 neighbor lists, perpetual/occasional/extra = 2 0 0
  (1) pair reax/c, perpetual
      attributes: half, newton off, ghost
      pair build: half/bin/newtoff/ghost
      stencil: half/ghost/bin/3d/newtoff
      bin: standard
  (2) fix qeq/reax, perpetual, copy from (1)
      attributes: half, newton off, ghost
      pair build: copy
      stencil: none
      bin: none
Per MPI rank memory allocation (min/avg/max) = 116.6 | 116.6 | 116.7 Mbytes
TotEng Step Dt 
  -292839.35        0         0.05 
  -292839.33       10         0.05 
  -292839.31       20         0.05 
  -292839.29       30         0.05 
  -292839.27       40         0.05 
   -292839.3       50         0.05 
  -292839.29       60         0.05 
  -292839.25       70         0.05 
  -292839.16       80         0.05 
  -292839.11       90         0.05 
  -292839.05      100         0.05 
  -292838.88      110         0.05 
   -292838.7      120         0.05 
  -292838.58      130         0.05 
  -292838.48      140         0.05 
  -292838.42      150         0.05 
  -292838.33      160         0.05 
  -292838.19      170         0.05 
  -292837.99      180         0.05 
  -292837.76      190         0.05 
  -292837.58      200         0.05 
  -292837.47      210         0.05 
  -292837.39      220         0.05 
  -292837.29      230         0.05 
  -292837.14      240         0.05 
  -292837.07      250         0.05 
  -292836.98      260         0.05 
  -292836.94      270         0.05 
  -292836.82      280         0.05 
  -292836.75      290         0.05 
  -292836.71      300         0.05 
  -292836.64      310         0.05 
  -292836.52      320         0.05 
  -292836.49      330         0.05 
  -292836.38      340         0.05 
  -292836.28      350         0.05 
  -292836.19      360         0.05 
  -292836.08      370         0.05 
  -292836.07      380         0.05 
  -292836.05      390         0.05 
  -292836.02      400         0.05 
  -292836.07      410         0.05 
  -292836.08      420         0.05 
  -292836.11      430         0.05 
  -292836.23      440         0.05 
   -292836.3      450         0.05 
  -292836.41      460         0.05 
  -292836.46      470         0.05 
  -292836.59      480         0.05 
   -292836.8      490         0.05 
  -292837.03      500         0.05 
  -292837.18      510         0.05 
  -292837.34      520         0.05 
   -292837.5      530         0.05 
  -292837.65      540         0.05 
  -292837.88      550         0.05 
  -292838.04      560         0.05 
  -292838.21      570         0.05 
  -292838.41      580         0.05 
   -292838.7      590         0.05 
  -292838.95      600         0.05 
  -292839.23      610         0.05 
  -292839.45      620         0.05 
  -292839.65      630         0.05 
  -292839.77      640         0.05 
  -292839.88      650         0.05 
  -292839.99      660         0.05 
   -292840.1      670         0.05 
  -292840.19      680         0.05 
   -292840.3      690         0.05 
  -292840.49      700         0.05 
  -292840.53      710         0.05 
  -292840.61      720         0.05 
   -292840.7      730         0.05 
  -292840.65      740         0.05 
  -292840.66      750         0.05 
  -292840.66      760         0.05 
  -292840.62      770         0.05 
  -292840.59      780         0.05 
  -292840.52      790         0.05 
   -292840.5      800         0.05 
  -292840.45      810         0.05 
  -292840.41      820         0.05 
  -292840.32      830         0.05 
  -292840.15      840         0.05 
  -292840.06      850         0.05 
  -292839.91      860         0.05 
  -292839.83      870         0.05 
  -292839.73      880         0.05 
  -292839.65      890         0.05 
  -292839.55      900         0.05 
  -292839.47      910         0.05 
  -292839.34      920         0.05 
   -292839.2      930         0.05 
  -292839.08      940         0.05 
  -292838.98      950         0.05 
  -292838.89      960         0.05 
  -292838.81      970         0.05 
  -292838.76      980         0.05 
  -292838.64      990         0.05 
  -292838.49     1000         0.05 
  -292838.36     1010         0.05 
  -292838.18     1020         0.05 
  -292838.09     1030         0.05 
  -292837.98     1040         0.05 
  -292837.83     1050         0.05 
  -292837.76     1060         0.05 
  -292837.67     1070         0.05 
  -292837.53     1080         0.05 
  -292837.39     1090         0.05 
  -292837.29     1100         0.05 
  -292837.17     1110         0.05 
   -292837.1     1120         0.05 
  -292836.97     1130         0.05 
   -292836.9     1140         0.05 
  -292836.79     1150         0.05 
  -292836.71     1160         0.05 
  -292836.57     1170         0.05 
   -292836.5     1180         0.05 
  -292836.46     1190         0.05 
  -292836.39     1200         0.05 
  -292836.34     1210         0.05 
  -292836.25     1220         0.05 
  -292836.16     1230         0.05 
   -292836.1     1240         0.05 
  -292836.08     1250         0.05 
  -292836.02     1260         0.05 
  -292835.95     1270         0.05 
  -292835.89     1280         0.05 
  -292835.85     1290         0.05 
  -292835.84     1300         0.05 
  -292835.89     1310         0.05 
  -292835.85     1320         0.05 
  -292835.81     1330         0.05 
   -292835.7     1340         0.05 
  -292835.67     1350         0.05 
  -292835.72     1360         0.05 
  -292835.66     1370         0.05 
  -292835.65     1380         0.05 
  -292835.69     1390         0.05 
  -292835.71     1400         0.05 
  -292835.72     1410         0.05 
  -292835.76     1420         0.05 
  -292835.79     1430         0.05 
  -292835.76     1440         0.05 
  -292835.77     1450         0.05 
  -292835.73     1460         0.05 
  -292835.67     1470         0.05 
  -292835.59     1480         0.05 
  -292835.58     1490         0.05 
  -292835.57     1500         0.05 
  -292835.54     1510         0.05 
  -292835.52     1520         0.05 
   -292835.5     1530         0.05 
   -292835.5     1540         0.05 
  -292835.48     1550         0.05 
  -292835.46     1560         0.05 
  -292835.47     1570         0.05 
  -292835.53     1580         0.05 
  -292835.52     1590         0.05 
  -292835.55     1600         0.05 
  -292835.57     1610         0.05 
  -292835.59     1620         0.05 
  -292835.52     1630         0.05 
  -292835.57     1640         0.05 
  -292835.51     1650         0.05 
  -292835.42     1660         0.05 
  -292835.34     1670         0.05 
  -292835.36     1680         0.05 
   -292835.4     1690         0.05 
  -292835.44     1700         0.05 
  -292835.46     1710         0.05 
  -292835.46     1720         0.05 
  -292835.49     1730         0.05 
  -292835.44     1740         0.05 
  -292835.49     1750         0.05 
  -292835.54     1760         0.05 
   -292835.6     1770         0.05 
  -292835.62     1780         0.05 
  -292835.67     1790         0.05 
   -292835.6     1800         0.05 
  -292835.69     1810         0.05 
  -292835.74     1820         0.05 
  -292835.76     1830         0.05 
  -292835.77     1840         0.05 
  -292835.75     1850         0.05 
   -292835.8     1860         0.05 
  -292835.97     1870         0.05 
  -292835.93     1880         0.05 
  -292836.05     1890         0.05 
  -292836.06     1900         0.05 
   -292836.1     1910         0.05 
  -292836.07     1920         0.05 
  -292836.06     1930         0.05 
  -292835.99     1940         0.05 
  -292835.93     1950         0.05 
  -292835.92     1960         0.05 
  -292835.95     1970         0.05 
  -292835.93     1980         0.05 
  -292836.06     1990         0.05 
  -292836.11     2000         0.05 
  -292836.12     2010         0.05 
  -292836.13     2020         0.05 
  -292836.07     2030         0.05 
  -292836.05     2040         0.05 
  -292836.03     2050         0.05 
  -292835.95     2060         0.05 
  -292835.94     2070         0.05 
  -292835.96     2080         0.05 
  -292835.99     2090         0.05 
     -292836     2100         0.05 
  -292836.04     2110         0.05 
  -292836.06     2120         0.05 
  -292836.08     2130         0.05 
  -292836.08     2140         0.05 
  -292836.12     2150         0.05 
  -292836.15     2160         0.05 
  -292836.15     2170         0.05 
  -292836.15     2180         0.05 
  -292836.17     2190         0.05 
  -292836.18     2200         0.05 
   -292836.2     2210         0.05 
  -292836.19     2220         0.05 
  -292836.25     2230         0.05 
  -292836.25     2240         0.05 
  -292836.27     2250         0.05 
  -292836.29     2260         0.05 
  -292836.29     2270         0.05 
  -292836.29     2280         0.05 
  -292836.22     2290         0.05 
  -292836.18     2300         0.05 
  -292836.16     2310         0.05 
  -292836.08     2320         0.05 
  -292836.06     2330         0.05 
  -292836.13     2340         0.05 
  -292836.16     2350         0.05 
  -292836.11     2360         0.05 
  -292836.15     2370         0.05 
  -292836.15     2380         0.05 
  -292836.12     2390         0.05 
  -292836.15     2400         0.05 
  -292836.15     2410         0.05 
  -292836.16     2420         0.05 
  -292836.15     2430         0.05 
  -292836.19     2440         0.05 
  -292836.15     2450         0.05 
  -292836.12     2460         0.05 
   -292836.1     2470         0.05 
   -292836.2     2480         0.05 
  -292836.22     2490         0.05 
  -292836.29     2500         0.05 
   -292836.3     2510         0.05 
   -292836.3     2520         0.05 
  -292836.27     2530         0.05 
  -292836.32     2540         0.05 
  -292836.37     2550         0.05 
  -292836.39     2560         0.05 
  -292836.37     2570         0.05 
  -292836.33     2580         0.05 
  -292836.25     2590         0.05 
  -292836.27     2600         0.05 
  -292836.19     2610         0.05 
  -292836.15     2620         0.05 
  -292836.12     2630         0.05 
  -292836.04     2640         0.05 
  -292836.06     2650         0.05 
  -292836.03     2660         0.05 
  -292836.02     2670         0.05 
  -292836.03     2680         0.05 
  -292836.01     2690         0.05 
     -292836     2700         0.05 
  -292836.05     2710         0.05 
  -292836.05     2720         0.05 
   -292836.1     2730         0.05 
  -292836.06     2740         0.05 
  -292836.06     2750         0.05 
  -292836.04     2760         0.05 
  -292836.02     2770         0.05 
  -292835.99     2780         0.05 
  -292835.99     2790         0.05 
  -292835.96     2800         0.05 
  -292835.88     2810         0.05 
  -292835.87     2820         0.05 
  -292835.82     2830         0.05 
  -292835.71     2840         0.05 
  -292835.64     2850         0.05 
  -292835.59     2860         0.05 
  -292835.53     2870         0.05 
  -292835.54     2880         0.05 
   -292835.5     2890         0.05 
   -292835.5     2900         0.05 
   -292835.5     2910         0.05 
  -292835.56     2920         0.05 
  -292835.62     2930         0.05 
   -292835.6     2940         0.05 
  -292835.62     2950         0.05 
   -292835.6     2960         0.05 
  -292835.59     2970         0.05 
  -292835.52     2980         0.05 
  -292835.52     2990         0.05 
  -292835.54     3000         0.05 
  -292835.49     3010         0.05 
  -292835.37     3020         0.05 
  -292835.33     3030         0.05 
  -292835.26     3040         0.05 
  -292835.17     3050         0.05 
  -292835.11     3060         0.05 
  -292835.04     3070         0.05 
  -292834.96     3080         0.05 
  -292834.93     3090         0.05 
  -292834.84     3100         0.05 
  -292834.78     3110         0.05 
   -292834.8     3120         0.05 
  -292834.71     3130         0.05 
  -292834.71     3140         0.05 
  -292834.76     3150         0.05 
  -292834.72     3160         0.05 
  -292834.64     3170         0.05 
  -292834.56     3180         0.05 
  -292834.51     3190         0.05 
  -292834.45     3200         0.05 
  -292834.42     3210         0.05 
  -292834.35     3220         0.05 
  -292834.26     3230         0.05 
  -292834.28     3240         0.05 
  -292834.25     3250         0.05 
  -292834.31     3260         0.05 
  -292834.39     3270         0.05 
  -292834.49     3280         0.05 
  -292834.49     3290         0.05 
  -292834.53     3300         0.05 
  -292834.65     3310         0.05 
  -292834.66     3320         0.05 
  -292834.65     3330         0.05 
   -292834.7     3340         0.05 
  -292834.78     3350         0.05 
  -292834.81     3360         0.05 
  -292834.87     3370         0.05 
  -292834.97     3380         0.05 
  -292835.01     3390         0.05 
  -292835.02     3400         0.05 
  -292835.01     3410         0.05 
  -292834.97     3420         0.05 
     -292835     3430         0.05 
  -292834.98     3440         0.05 
  -292834.97     3450         0.05 
  -292834.97     3460         0.05 
   -292835.1     3470         0.05 
  -292835.17     3480         0.05 
  -292835.19     3490         0.05 
  -292835.19     3500         0.05 
  -292835.22     3510         0.05 
   -292835.3     3520         0.05 
  -292835.33     3530         0.05 
  -292835.31     3540         0.05 
  -292835.37     3550         0.05 
  -292835.44     3560         0.05 
  -292835.52     3570         0.05 
  -292835.56     3580         0.05 
  -292835.61     3590         0.05 
  -292835.61     3600         0.05 
  -292835.64     3610         0.05 
  -292835.67     3620         0.05 
  -292835.66     3630         0.05 
  -292835.63     3640         0.05 
  -292835.65     3650         0.05 
  -292835.65     3660         0.05 
  -292835.65     3670         0.05 
  -292835.66     3680         0.05 
  -292835.65     3690         0.05 
  -292835.66     3700         0.05 
  -292835.62     3710         0.05 
  -292835.55     3720         0.05 
  -292835.49     3730         0.05 
  -292835.47     3740         0.05 
  -292835.43     3750         0.05 
  -292835.36     3760         0.05 
  -292835.37     3770         0.05 
  -292835.35     3780         0.05 
  -292835.32     3790         0.05 
  -292835.27     3800         0.05 
  -292835.28     3810         0.05 
   -292835.2     3820         0.05 
  -292835.16     3830         0.05 
  -292835.11     3840         0.05 
  -292835.06     3850         0.05 
  -292835.06     3860         0.05 
  -292834.99     3870         0.05 
  -292834.94     3880         0.05 
  -292834.84     3890         0.05 
  -292834.81     3900         0.05 
  -292834.78     3910         0.05 
  -292834.75     3920         0.05 
  -292834.81     3930         0.05 
   -292834.8     3940         0.05 
  -292834.85     3950         0.05 
  -292834.84     3960         0.05 
   -292834.8     3970         0.05 
  -292834.81     3980         0.05 
  -292834.78     3990         0.05 
  -292834.77     4000         0.05 
  -292834.88     4010         0.05 
  -292834.87     4020         0.05 
  -292834.82     4030         0.05 
  -292834.87     4040         0.05 
  -292834.94     4050         0.05 
   -292834.9     4060         0.05 
  -292834.89     4070         0.05 
  -292834.91     4080         0.05 
  -292834.93     4090         0.05 
  -292834.91     4100         0.05 
  -292834.91     4110         0.05 
  -292834.87     4120         0.05 
  -292834.91     4130         0.05 
  -292834.91     4140         0.05 
  -292834.87     4150         0.05 
  -292834.89     4160         0.05 
  -292834.87     4170         0.05 
  -292834.98     4180         0.05 
     -292835     4190         0.05 
  -292835.04     4200         0.05 
  -292835.07     4210         0.05 
  -292835.08     4220         0.05 
  -292835.04     4230         0.05 
     -292835     4240         0.05 
  -292835.06     4250         0.05 
   -292835.1     4260         0.05 
  -292835.11     4270         0.05 
  -292835.05     4280         0.05 
  -292834.99     4290         0.05 
  -292834.95     4300         0.05 
  -292834.94     4310         0.05 
  -292834.95     4320         0.05 
  -292834.93     4330         0.05 
  -292834.86     4340         0.05 
  -292834.71     4350         0.05 
   -292834.7     4360         0.05 
  -292834.62     4370         0.05 
  -292834.54     4380         0.05 
  -292834.54     4390         0.05 
   -292834.5     4400         0.05 
  -292834.57     4410         0.05 
  -292834.62     4420         0.05 
  -292834.69     4430         0.05 
  -292834.64     4440         0.05 
  -292834.66     4450         0.05 
  -292834.58     4460         0.05 
  -292834.54     4470         0.05 
  -292834.47     4480         0.05 
  -292834.45     4490         0.05 
  -292834.47     4500         0.05 
  -292834.48     4510         0.05 
  -292834.51     4520         0.05 
  -292834.56     4530         0.05 
  -292834.55     4540         0.05 
  -292834.54     4550         0.05 
  -292834.49     4560         0.05 
  -292834.44     4570         0.05 
  -292834.35     4580         0.05 
  -292834.31     4590         0.05 
   -292834.3     4600         0.05 
  -292834.29     4610         0.05 
  -292834.37     4620         0.05 
  -292834.35     4630         0.05 
  -292834.38     4640         0.05 
  -292834.29     4650         0.05 
  -292834.18     4660         0.05 
  -292834.13     4670         0.05 
  -292834.16     4680         0.05 
  -292834.18     4690         0.05 
  -292834.15     4700         0.05 
  -292834.23     4710         0.05 
  -292834.19     4720         0.05 
  -292834.19     4730         0.05 
  -292834.14     4740         0.05 
  -292834.13     4750         0.05 
  -292834.13     4760         0.05 
  -292834.16     4770         0.05 
  -292834.23     4780         0.05 
  -292834.32     4790         0.05 
  -292834.42     4800         0.05 
  -292834.45     4810         0.05 
  -292834.47     4820         0.05 
  -292834.53     4830         0.05 
   -292834.6     4840         0.05 
  -292834.65     4850         0.05 
  -292834.74     4860         0.05 
  -292834.72     4870         0.05 
   -292834.7     4880         0.05 
   -292834.7     4890         0.05 
  -292834.81     4900         0.05 
  -292834.83     4910         0.05 
  -292834.92     4920         0.05 
  -292834.92     4930         0.05 
  -292834.91     4940         0.05 
  -292834.89     4950         0.05 
  -292834.84     4960         0.05 
  -292834.83     4970         0.05 
  -292834.84     4980         0.05 
  -292834.85     4990         0.05 
  -292834.91     5000         0.05 
  -292834.99     5010         0.05 
  -292835.02     5020         0.05 
  -292835.02     5030         0.05 
  -292835.11     5040         0.05 
  -292835.18     5050         0.05 
  -292835.17     5060         0.05 
  -292835.17     5070         0.05 
  -292835.16     5080         0.05 
  -292835.17     5090         0.05 
  -292835.18     5100         0.05 
  -292835.16     5110         0.05 
  -292835.14     5120         0.05 
  -292835.09     5130         0.05 
  -292835.07     5140         0.05 
  -292835.08     5150         0.05 
  -292835.09     5160         0.05 
  -292835.07     5170         0.05 
  -292835.08     5180         0.05 
  -292834.99     5190         0.05 
  -292834.94     5200         0.05 
  -292834.91     5210         0.05 
  -292834.83     5220         0.05 
  -292834.84     5230         0.05 
  -292834.74     5240         0.05 
  -292834.73     5250         0.05 
  -292834.69     5260         0.05 
  -292834.67     5270         0.05 
  -292834.64     5280         0.05 
  -292834.68     5290         0.05 
  -292834.75     5300         0.05 
  -292834.76     5310         0.05 
  -292834.85     5320         0.05 
  -292834.88     5330         0.05 
  -292834.89     5340         0.05 
  -292834.93     5350         0.05 
  -292834.85     5360         0.05 
  -292834.83     5370         0.05 
  -292834.86     5380         0.05 
  -292834.86     5390         0.05 
  -292834.89     5400         0.05 
  -292834.92     5410         0.05 
  -292834.91     5420         0.05 
  -292834.87     5430         0.05 
  -292834.85     5440         0.05 
  -292834.89     5450         0.05 
  -292834.86     5460         0.05 
  -292834.85     5470         0.05 
  -292834.89     5480         0.05 
   -292834.8     5490         0.05 
  -292834.77     5500         0.05 
  -292834.82     5510         0.05 
  -292834.76     5520         0.05 
  -292834.71     5530         0.05 
  -292834.72     5540         0.05 
  -292834.69     5550         0.05 
  -292834.66     5560         0.05 
  -292834.64     5570         0.05 
  -292834.65     5580         0.05 
  -292834.56     5590         0.05 
  -292834.58     5600         0.05 
   -292834.6     5610         0.05 
  -292834.56     5620         0.05 
  -292834.51     5630         0.05 
  -292834.38     5640         0.05 
  -292834.38     5650         0.05 
   -292834.4     5660         0.05 
  -292834.35     5670         0.05 
  -292834.28     5680         0.05 
  -292834.18     5690         0.05 
  -292834.15     5700         0.05 
  -292834.08     5710         0.05 
  -292834.06     5720         0.05 
  -292834.02     5730         0.05 
  -292834.08     5740         0.05 
   -292834.1     5750         0.05 
  -292834.11     5760         0.05 
  -292834.09     5770         0.05 
  -292834.12     5780         0.05 
  -292834.08     5790         0.05 
  -292833.96     5800         0.05 
  -292833.96     5810         0.05 
  -292833.93     5820         0.05 
  -292833.93     5830         0.05 
  -292833.92     5840         0.05 
  -292833.94     5850         0.05 
  -292833.93     5860         0.05 
  -292833.96     5870         0.05 
     -292834     5880         0.05 
     -292834     5890         0.05 
  -292833.96     5900         0.05 
  -292833.93     5910         0.05 
  -292833.91     5920         0.05 
   -292833.9     5930         0.05 
  -292833.93     5940         0.05 
  -292833.93     5950         0.05 
  -292833.89     5960         0.05 
   -292833.9     5970         0.05 
   -292833.8     5980         0.05 
  -292833.76     5990         0.05 
  -292833.79     6000         0.05 
  -292833.77     6010         0.05 
   -292833.8     6020         0.05 
  -292833.74     6030         0.05 
  -292833.74     6040         0.05 
  -292833.79     6050         0.05 
  -292833.81     6060         0.05 
   -292833.8     6070         0.05 
  -292833.83     6080         0.05 
  -292833.82     6090         0.05 
  -292833.84     6100         0.05 
  -292833.82     6110         0.05 
  -292833.79     6120         0.05 
   -292833.8     6130         0.05 
  -292833.82     6140         0.05 
  -292833.77     6150         0.05 
  -292833.79     6160         0.05 
  -292833.82     6170         0.05 
  -292833.83     6180         0.05 
  -292833.78     6190         0.05 
  -292833.84     6200         0.05 
  -292833.84     6210         0.05 
  -292833.87     6220         0.05 
  -292833.89     6230         0.05 
  -292833.86     6240         0.05 
  -292833.82     6250         0.05 
  -292833.89     6260         0.05 
  -292833.88     6270         0.05 
  -292833.82     6280         0.05 
  -292833.82     6290         0.05 
  -292833.85     6300         0.05 
  -292833.87     6310         0.05 
  -292833.95     6320         0.05 
  -292833.89     6330         0.05 
  -292833.98     6340         0.05 
  -292833.97     6350         0.05 
  -292833.96     6360         0.05 
  -292833.94     6370         0.05 
  -292833.93     6380         0.05 
  -292833.95     6390         0.05 
     -292834     6400         0.05 
  -292833.97     6410         0.05 
     -292834     6420         0.05 
  -292834.01     6430         0.05 
  -292834.02     6440         0.05 
  -292834.07     6450         0.05 
  -292834.12     6460         0.05 
  -292834.11     6470         0.05 
  -292834.14     6480         0.05 
  -292834.16     6490         0.05 
  -292834.08     6500         0.05 
  -292834.07     6510         0.05 
  -292834.06     6520         0.05 
  -292833.99     6530         0.05 
  -292833.98     6540         0.05 
  -292834.04     6550         0.05 
  -292834.09     6560         0.05 
  -292834.07     6570         0.05 
  -292834.01     6580         0.05 
  -292834.04     6590         0.05 
  -292834.03     6600         0.05 
  -292834.08     6610         0.05 
   -292834.1     6620         0.05 
  -292834.11     6630         0.05 
  -292834.03     6640         0.05 
  -292833.92     6650         0.05 
  -292833.86     6660         0.05 
  -292833.73     6670         0.05 
  -292833.73     6680         0.05 
  -292833.78     6690         0.05 
  -292833.79     6700         0.05 
  -292833.78     6710         0.05 
  -292833.76     6720         0.05 
  -292833.72     6730         0.05 
  -292833.72     6740         0.05 
  -292833.72     6750         0.05 
  -292833.73     6760         0.05 
  -292833.74     6770         0.05 
   -292833.7     6780         0.05 
   -292833.7     6790         0.05 
  -292833.72     6800         0.05 
  -292833.69     6810         0.05 
  -292833.69     6820         0.05 
  -292833.69     6830         0.05 
  -292833.77     6840         0.05 
  -292833.81     6850         0.05 
  -292833.83     6860         0.05 
  -292833.87     6870         0.05 
  -292833.92     6880         0.05 
  -292833.85     6890         0.05 
  -292833.86     6900         0.05 
  -292833.81     6910         0.05 
  -292833.87     6920         0.05 
  -292833.91     6930         0.05 
  -292833.89     6940         0.05 
  -292833.93     6950         0.05 
  -292833.95     6960         0.05 
  -292834.05     6970         0.05 
  -292833.98     6980         0.05 
     -292834     6990         0.05 
  -292834.04     7000         0.05 
  -292834.04     7010         0.05 
  -292834.01     7020         0.05 
  -292834.04     7030         0.05 
  -292833.97     7040         0.05 
  -292834.01     7050         0.05 
  -292834.05     7060         0.05 
  -292834.11     7070         0.05 
  -292834.21     7080         0.05 
  -292834.27     7090         0.05 
  -292834.22     7100         0.05 
  -292834.16     7110         0.05 
  -292834.15     7120         0.05 
  -292834.08     7130         0.05 
  -292834.09     7140         0.05 
   -292834.1     7150         0.05 
  -292834.08     7160         0.05 
  -292834.03     7170         0.05 
  -292834.02     7180         0.05 
  -292834.06     7190         0.05 
  -292834.09     7200         0.05 
   -292834.1     7210         0.05 
  -292834.26     7220         0.05 
  -292834.35     7230         0.05 
  -292834.42     7240         0.05 
   -292834.5     7250         0.05 
  -292834.52     7260         0.05 
  -292834.49     7270         0.05 
  -292834.54     7280         0.05 
  -292834.55     7290         0.05 
  -292834.62     7300         0.05 
   -292834.7     7310         0.05 
  -292834.83     7320         0.05 
  -292834.88     7330         0.05 
  -292834.98     7340         0.05 
  -292835.04     7350         0.05 
  -292835.07     7360         0.05 
  -292835.01     7370         0.05 
  -292835.03     7380         0.05 
  -292835.03     7390         0.05 
  -292834.99     7400         0.05 
  -292834.95     7410         0.05 
  -292834.96     7420         0.05 
  -292834.94     7430         0.05 
  -292834.92     7440         0.05 
  -292834.89     7450         0.05 
  -292834.89     7460         0.05 
  -292834.89     7470         0.05 
   -292834.9     7480         0.05 
  -292834.91     7490         0.05 
  -292834.88     7500         0.05 
  -292834.87     7510         0.05 
  -292834.86     7520         0.05 
  -292834.89     7530         0.05 
   -292834.9     7540         0.05 
  -292834.85     7550         0.05 
  -292834.86     7560         0.05 
  -292834.77     7570         0.05 
  -292834.75     7580         0.05 
  -292834.67     7590         0.05 
   -292834.6     7600         0.05 
  -292834.51     7610         0.05 
  -292834.45     7620         0.05 
  -292834.42     7630         0.05 
  -292834.38     7640         0.05 
  -292834.38     7650         0.05 
  -292834.39     7660         0.05 
  -292834.34     7670         0.05 
   -292834.3     7680         0.05 
  -292834.26     7690         0.05 
  -292834.14     7700         0.05 
  -292834.16     7710         0.05 
  -292834.14     7720         0.05 
   -292834.2     7730         0.05 
  -292834.18     7740         0.05 
  -292834.26     7750         0.05 
  -292834.31     7760         0.05 
  -292834.24     7770         0.05 
  -292834.26     7780         0.05 
  -292834.19     7790         0.05 
  -292834.18     7800         0.05 
  -292834.26     7810         0.05 
  -292834.31     7820         0.05 
  -292834.37     7830         0.05 
  -292834.43     7840         0.05 
  -292834.52     7850         0.05 
  -292834.54     7860         0.05 
  -292834.59     7870         0.05 
  -292834.62     7880         0.05 
  -292834.71     7890         0.05 
   -292834.7     7900         0.05 
   -292834.8     7910         0.05 
  -292834.93     7920         0.05 
  -292834.96     7930         0.05 
  -292834.92     7940         0.05 
  -292834.85     7950         0.05 
  -292834.81     7960         0.05 
   -292834.8     7970         0.05 
   -292834.8     7980         0.05 
  -292834.83     7990         0.05 
  -292834.88     8000         0.05 
  -292834.91     8010         0.05 
  -292834.95     8020         0.05 
  -292834.95     8030         0.05 
  -292834.85     8040         0.05 
   -292834.8     8050         0.05 
  -292834.74     8060         0.05 
  -292834.72     8070         0.05 
  -292834.72     8080         0.05 
  -292834.75     8090         0.05 
  -292834.83     8100         0.05 
   -292834.8     8110         0.05 
  -292834.86     8120         0.05 
  -292834.88     8130         0.05 
  -292834.88     8140         0.05 
  -292834.86     8150         0.05 
   -292834.9     8160         0.05 
   -292834.9     8170         0.05 
  -292834.91     8180         0.05 
   -292834.9     8190         0.05 
  -292834.79     8200         0.05 
  -292834.85     8210         0.05 
  -292834.77     8220         0.05 
  -292834.74     8230         0.05 
  -292834.76     8240         0.05 
  -292834.82     8250         0.05 
  -292834.86     8260         0.05 
  -292834.88     8270         0.05 
  -292834.91     8280         0.05 
  -292834.93     8290         0.05 
  -292834.91     8300         0.05 
  -292834.98     8310         0.05 
     -292835     8320         0.05 
  -292835.02     8330         0.05 
  -292835.01     8340         0.05 
  -292835.04     8350         0.05 
  -292835.02     8360         0.05 
  -292834.86     8370         0.05 
  -292834.83     8380         0.05 
   -292834.8     8390         0.05 
  -292834.75     8400         0.05 
   -292834.8     8410         0.05 
   -292834.8     8420         0.05 
  -292834.79     8430         0.05 
   -292834.7     8440         0.05 
  -292834.69     8450         0.05 
  -292834.69     8460         0.05 
  -292834.64     8470         0.05 
  -292834.73     8480         0.05 
  -292834.73     8490         0.05 
   -292834.7     8500         0.05 
  -292834.76     8510         0.05 
  -292834.77     8520         0.05 
  -292834.75     8530         0.05 
  -292834.79     8540         0.05 
  -292834.83     8550         0.05 
  -292834.85     8560         0.05 
  -292834.88     8570         0.05 
  -292834.84     8580         0.05 
  -292834.86     8590         0.05 
  -292834.87     8600         0.05 
  -292834.91     8610         0.05 
  -292834.93     8620         0.05 
   -292834.9     8630         0.05 
  -292834.87     8640         0.05 
  -292834.92     8650         0.05 
  -292834.95     8660         0.05 
  -292834.99     8670         0.05 
  -292834.95     8680         0.05 
  -292834.99     8690         0.05 
  -292834.98     8700         0.05 
  -292834.96     8710         0.05 
  -292834.99     8720         0.05 
  -292835.03     8730         0.05 
  -292835.06     8740         0.05 
  -292835.13     8750         0.05 
  -292835.16     8760         0.05 
  -292835.19     8770         0.05 
  -292835.23     8780         0.05 
  -292835.28     8790         0.05 
  -292835.28     8800         0.05 
  -292835.34     8810         0.05 
  -292835.32     8820         0.05 
  -292835.28     8830         0.05 
  -292835.25     8840         0.05 
   -292835.2     8850         0.05 
  -292835.23     8860         0.05 
  -292835.22     8870         0.05 
  -292835.27     8880         0.05 
  -292835.41     8890         0.05 
  -292835.38     8900         0.05 
  -292835.39     8910         0.05 
  -292835.31     8920         0.05 
  -292835.34     8930         0.05 
  -292835.31     8940         0.05 
   -292835.3     8950         0.05 
  -292835.28     8960         0.05 
  -292835.21     8970         0.05 
  -292835.19     8980         0.05 
  -292835.18     8990         0.05 
  -292835.16     9000         0.05 
  -292835.15     9010         0.05 
  -292835.18     9020         0.05 
  -292835.26     9030         0.05 
  -292835.38     9040         0.05 
  -292835.37     9050         0.05 
  -292835.39     9060         0.05 
  -292835.34     9070         0.05 
  -292835.33     9080         0.05 
   -292835.4     9090         0.05 
  -292835.41     9100         0.05 
   -292835.4     9110         0.05 
   -292835.4     9120         0.05 
  -292835.39     9130         0.05 
  -292835.38     9140         0.05 
  -292835.28     9150         0.05 
  -292835.32     9160         0.05 
  -292835.31     9170         0.05 
   -292835.3     9180         0.05 
  -292835.33     9190         0.05 
  -292835.31     9200         0.05 
   -292835.3     9210         0.05 
  -292835.34     9220         0.05 
  -292835.32     9230         0.05 
  -292835.29     9240         0.05 
  -292835.26     9250         0.05 
  -292835.25     9260         0.05 
  -292835.28     9270         0.05 
  -292835.33     9280         0.05 
  -292835.31     9290         0.05 
  -292835.32     9300         0.05 
  -292835.33     9310         0.05 
  -292835.33     9320         0.05 
  -292835.38     9330         0.05 
   -292835.4     9340         0.05 
  -292835.39     9350         0.05 
  -292835.38     9360         0.05 
   -292835.3     9370         0.05 
  -292835.22     9380         0.05 
  -292835.19     9390         0.05 
  -292835.16     9400         0.05 
  -292835.18     9410         0.05 
   -292835.2     9420         0.05 
   -292835.3     9430         0.05 
  -292835.35     9440         0.05 
  -292835.45     9450         0.05 
  -292835.38     9460         0.05 
   -292835.4     9470         0.05 
  -292835.52     9480         0.05 
  -292835.64     9490         0.05 
  -292835.66     9500         0.05 
  -292835.66     9510         0.05 
  -292835.69     9520         0.05 
   -292835.7     9530         0.05 
  -292835.72     9540         0.05 
  -292835.74     9550         0.05 
   -292835.8     9560         0.05 
   -292835.8     9570         0.05 
  -292835.81     9580         0.05 
  -292835.76     9590         0.05 
  -292835.67     9600         0.05 
   -292835.7     9610         0.05 
  -292835.74     9620         0.05 
  -292835.73     9630         0.05 
  -292835.79     9640         0.05 
  -292835.83     9650         0.05 
  -292835.77     9660         0.05 
  -292835.68     9670         0.05 
   -292835.7     9680         0.05 
  -292835.65     9690         0.05 
  -292835.69     9700         0.05 
  -292835.71     9710         0.05 
  -292835.71     9720         0.05 
  -292835.69     9730         0.05 
  -292835.72     9740         0.05 
  -292835.72     9750         0.05 
  -292835.72     9760         0.05 
  -292835.73     9770         0.05 
  -292835.74     9780         0.05 
  -292835.74     9790         0.05 
  -292835.72     9800         0.05 
  -292835.75     9810         0.05 
  -292835.76     9820         0.05 
  -292835.83     9830         0.05 
  -292835.84     9840         0.05 
  -292835.86     9850         0.05 
  -292835.81     9860         0.05 
  -292835.83     9870         0.05 
  -292835.82     9880         0.05 
  -292835.88     9890         0.05 
   -292835.9     9900         0.05 
  -292835.88     9910         0.05 
  -292835.95     9920         0.05 
  -292835.99     9930         0.05 
  -292835.92     9940         0.05 
  -292835.87     9950         0.05 
  -292835.83     9960         0.05 
   -292835.8     9970         0.05 
  -292835.79     9980         0.05 
  -292835.79     9990         0.05 
  -292835.79    10000         0.05 
  -292835.82    10010         0.05 
  -292835.83    10020         0.05 
  -292835.88    10030         0.05 
  -292835.94    10040         0.05 
  -292835.97    10050         0.05 
     -292836    10060         0.05 
  -292835.97    10070         0.05 
  -292835.87    10080         0.05 
  -292835.86    10090         0.05 
  -292835.84    10100         0.05 
  -292835.83    10110         0.05 
   -292835.8    10120         0.05 
  -292835.79    10130         0.05 
   -292835.7    10140         0.05 
  -292835.66    10150         0.05 
  -292835.67    10160         0.05 
  -292835.69    10170         0.05 
   -292835.7    10180         0.05 
  -292835.78    10190         0.05 
  -292835.77    10200         0.05 
  -292835.76    10210         0.05 
  -292835.76    10220         0.05 
  -292835.79    10230         0.05 
   -292835.8    10240         0.05 
  -292835.72    10250         0.05 
  -292835.68    10260         0.05 
  -292835.62    10270         0.05 
  -292835.57    10280         0.05 
  -292835.52    10290         0.05 
  -292835.54    10300         0.05 
  -292835.49    10310         0.05 
  -292835.43    10320         0.05 
  -292835.37    10330         0.05 
  -292835.39    10340         0.05 
   -292835.3    10350         0.05 
   -292835.2    10360         0.05 
  -292835.17    10370         0.05 
  -292835.16    10380         0.05 
  -292835.11    10390         0.05 
  -292835.16    10400         0.05 
  -292835.11    10410         0.05 
  -292835.14    10420         0.05 
  -292835.18    10430         0.05 
  -292835.27    10440         0.05 
  -292835.31    10450         0.05 
  -292835.37    10460         0.05 
  -292835.36    10470         0.05 
  -292835.41    10480         0.05 
  -292835.37    10490         0.05 
  -292835.38    10500         0.05 
  -292835.35    10510         0.05 
  -292835.26    10520         0.05 
  -292835.22    10530         0.05 
  -292835.18    10540         0.05 
  -292835.12    10550         0.05 
  -292835.12    10560         0.05 
  -292835.09    10570         0.05 
  -292835.09    10580         0.05 
  -292835.11    10590         0.05 
  -292835.09    10600         0.05 
  -292835.07    10610         0.05 
  -292835.03    10620         0.05 
  -292834.97    10630         0.05 
     -292835    10640         0.05 
  -292835.07    10650         0.05 
  -292835.05    10660         0.05 
  -292835.01    10670         0.05 
     -292835    10680         0.05 
  -292834.95    10690         0.05 
  -292834.95    10700         0.05 
  -292834.98    10710         0.05 
  -292834.99    10720         0.05 
  -292835.04    10730         0.05 
  -292834.99    10740         0.05 
  -292835.01    10750         0.05 
  -292834.97    10760         0.05 
  -292834.93    10770         0.05 
  -292834.95    10780         0.05 
  -292834.94    10790         0.05 
  -292834.92    10800         0.05 
  -292834.88    10810         0.05 
  -292834.84    10820         0.05 
  -292834.82    10830         0.05 
  -292834.79    10840         0.05 
  -292834.76    10850         0.05 
   -292834.8    10860         0.05 
  -292834.76    10870         0.05 
  -292834.87    10880         0.05 
  -292834.95    10890         0.05 
     -292835    10900         0.05 
  -292835.03    10910         0.05 
  -292835.05    10920         0.05 
  -292835.07    10930         0.05 
  -292835.18    10940         0.05 
  -292835.18    10950         0.05 
  -292835.24    10960         0.05 
  -292835.25    10970         0.05 
  -292835.26    10980         0.05 
  -292835.22    10990         0.05 
  -292835.26    11000         0.05 
  -292835.29    11010         0.05 
  -292835.29    11020         0.05 
  -292835.29    11030         0.05 
  -292835.37    11040         0.05 
  -292835.38    11050         0.05 
  -292835.38    11060         0.05 
  -292835.43    11070         0.05 
  -292835.45    11080         0.05 
  -292835.53    11090         0.05 
  -292835.56    11100         0.05 
  -292835.57    11110         0.05 
  -292835.57    11120         0.05 
  -292835.52    11130         0.05 
  -292835.61    11140         0.05 
  -292835.71    11150         0.05 
   -292835.8    11160         0.05 
  -292835.81    11170         0.05 
  -292835.83    11180         0.05 
  -292835.85    11190         0.05 
  -292835.82    11200         0.05 
   -292835.8    11210         0.05 
  -292835.82    11220         0.05 
  -292835.85    11230         0.05 
  -292835.93    11240         0.05 
  -292836.02    11250         0.05 
  -292836.04    11260         0.05 
   -292836.1    11270         0.05 
  -292836.16    11280         0.05 
  -292836.24    11290         0.05 
  -292836.25    11300         0.05 
  -292836.27    11310         0.05 
  -292836.29    11320         0.05 
  -292836.33    11330         0.05 
  -292836.26    11340         0.05 
  -292836.24    11350         0.05 
  -292836.24    11360         0.05 
  -292836.24    11370         0.05 
  -292836.33    11380         0.05 
  -292836.33    11390         0.05 
  -292836.36    11400         0.05 
  -292836.37    11410         0.05 
  -292836.43    11420         0.05 
  -292836.34    11430         0.05 
  -292836.29    11440         0.05 
  -292836.24    11450         0.05 
  -292836.23    11460         0.05 
  -292836.27    11470         0.05 
  -292836.29    11480         0.05 
  -292836.27    11490         0.05 
  -292836.26    11500         0.05 
  -292836.32    11510         0.05 
  -292836.25    11520         0.05 
  -292836.21    11530         0.05 
  -292836.16    11540         0.05 
  -292836.19    11550         0.05 
  -292836.18    11560         0.05 
  -292836.15    11570         0.05 
  -292836.13    11580         0.05 
  -292836.08    11590         0.05 
  -292836.03    11600         0.05 
  -292836.03    11610         0.05 
  -292836.08    11620         0.05 
  -292836.05    11630         0.05 
  -292835.98    11640         0.05 
  -292835.89    11650         0.05 
  -292835.85    11660         0.05 
  -292835.89    11670         0.05 
  -292835.92    11680         0.05 
  -292835.89    11690         0.05 
  -292835.81    11700         0.05 
  -292835.74    11710         0.05 
  -292835.67    11720         0.05 
  -292835.66    11730         0.05 
  -292835.65    11740         0.05 
  -292835.62    11750         0.05 
  -292835.63    11760         0.05 
   -292835.6    11770         0.05 
  -292835.65    11780         0.05 
  -292835.68    11790         0.05 
  -292835.63    11800         0.05 
   -292835.6    11810         0.05 
  -292835.53    11820         0.05 
  -292835.54    11830         0.05 
  -292835.47    11840         0.05 
  -292835.45    11850         0.05 
  -292835.42    11860         0.05 
  -292835.38    11870         0.05 
  -292835.39    11880         0.05 
  -292835.45    11890         0.05 
  -292835.46    11900         0.05 
   -292835.5    11910         0.05 
  -292835.52    11920         0.05 
  -292835.46    11930         0.05 
  -292835.48    11940         0.05 
  -292835.55    11950         0.05 
  -292835.49    11960         0.05 
  -292835.38    11970         0.05 
  -292835.35    11980         0.05 
  -292835.34    11990         0.05 
  -292835.43    12000         0.05 
  -292835.49    12010         0.05 
  -292835.63    12020         0.05 
  -292835.66    12030         0.05 
  -292835.72    12040         0.05 
  -292835.78    12050         0.05 
  -292835.82    12060         0.05 
  -292835.91    12070         0.05 
  -292835.95    12080         0.05 
  -292835.96    12090         0.05 
  -292835.92    12100         0.05 
  -292835.85    12110         0.05 
  -292835.84    12120         0.05 
  -292835.81    12130         0.05 
  -292835.79    12140         0.05 
  -292835.76    12150         0.05 
   -292835.8    12160         0.05 
  -292835.77    12170         0.05 
  -292835.65    12180         0.05 
  -292835.63    12190         0.05 
  -292835.65    12200         0.05 
  -292835.71    12210         0.05 
  -292835.81    12220         0.05 
  -292835.81    12230         0.05 
  -292835.83    12240         0.05 
   -292835.8    12250         0.05 
  -292835.77    12260         0.05 
  -292835.75    12270         0.05 
  -292835.74    12280         0.05 
  -292835.69    12290         0.05 
  -292835.66    12300         0.05 
  -292835.62    12310         0.05 
  -292835.58    12320         0.05 
  -292835.58    12330         0.05 
  -292835.62    12340         0.05 
  -292835.67    12350         0.05 
  -292835.64    12360         0.05 
  -292835.69    12370         0.05 
  -292835.75    12380         0.05 
  -292835.74    12390         0.05 
  -292835.76    12400         0.05 
  -292835.75    12410         0.05 
  -292835.73    12420         0.05 
  -292835.67    12430         0.05 
  -292835.69    12440         0.05 
  -292835.61    12450         0.05 
  -292835.56    12460         0.05 
  -292835.55    12470         0.05 
  -292835.55    12480         0.05 
  -292835.54    12490         0.05 
  -292835.56    12500         0.05 
  -292835.51    12510         0.05 
  -292835.46    12520         0.05 
  -292835.48    12530         0.05 
  -292835.44    12540         0.05 
   -292835.5    12550         0.05 
  -292835.46    12560         0.05 
  -292835.38    12570         0.05 
  -292835.42    12580         0.05 
  -292835.39    12590         0.05 
  -292835.27    12600         0.05 
  -292835.28    12610         0.05 
  -292835.27    12620         0.05 
  -292835.28    12630         0.05 
  -292835.27    12640         0.05 
   -292835.3    12650         0.05 
  -292835.31    12660         0.05 
  -292835.33    12670         0.05 
  -292835.36    12680         0.05 
   -292835.4    12690         0.05 
  -292835.37    12700         0.05 
  -292835.41    12710         0.05 
  -292835.38    12720         0.05 
  -292835.37    12730         0.05 
  -292835.42    12740         0.05 
  -292835.39    12750         0.05 
  -292835.41    12760         0.05 
  -292835.47    12770         0.05 
  -292835.51    12780         0.05 
  -292835.65    12790         0.05 
  -292835.65    12800         0.05 
  -292835.65    12810         0.05 
  -292835.66    12820         0.05 
  -292835.67    12830         0.05 
  -292835.76    12840         0.05 
  -292835.78    12850         0.05 
  -292835.74    12860         0.05 
  -292835.74    12870         0.05 
  -292835.75    12880         0.05 
  -292835.87    12890         0.05 
  -292835.82    12900         0.05 
  -292835.85    12910         0.05 
  -292835.85    12920         0.05 
  -292835.93    12930         0.05 
  -292835.92    12940         0.05 
  -292835.97    12950         0.05 
     -292836    12960         0.05 
     -292836    12970         0.05 
  -292836.02    12980         0.05 
  -292836.04    12990         0.05 
  -292836.09    13000         0.05 
  -292836.14    13010         0.05 
  -292836.18    13020         0.05 
  -292836.17    13030         0.05 
  -292836.16    13040         0.05 
  -292836.04    13050         0.05 
  -292836.01    13060         0.05 
  -292836.08    13070         0.05 
  -292836.05    13080         0.05 
  -292836.12    13090         0.05 
  -292836.16    13100         0.05 
  -292836.16    13110         0.05 
   -292836.1    13120         0.05 
  -292836.07    13130         0.05 
  -292836.08    13140         0.05 
  -292836.08    13150         0.05 
  -292836.06    13160         0.05 
  -292836.03    13170         0.05 
  -292836.04    13180         0.05 
  -292836.06    13190         0.05 
  -292836.12    13200         0.05 
  -292836.15    13210         0.05 
  -292836.17    13220         0.05 
  -292836.18    13230         0.05 
  -292836.17    13240         0.05 
  -292836.21    13250         0.05 
  -292836.23    13260         0.05 
   -292836.2    13270         0.05 
  -292836.18    13280         0.05 
  -292836.13    13290         0.05 
  -292836.11    13300         0.05 
   -292836.1    13310         0.05 
  -292836.06    13320         0.05 
  -292836.02    13330         0.05 
  -292836.07    13340         0.05 
  -292836.06    13350         0.05 
  -292836.07    13360         0.05 
  -292836.06    13370         0.05 
  -292836.05    13380         0.05 
  -292836.05    13390         0.05 
  -292836.07    13400         0.05 
  -292836.14    13410         0.05 
  -292836.18    13420         0.05 
  -292836.17    13430         0.05 
  -292836.19    13440         0.05 
   -292836.2    13450         0.05 
  -292836.16    13460         0.05 
  -292836.15    13470         0.05 
  -292836.14    13480         0.05 
  -292836.09    13490         0.05 
   -292836.1    13500         0.05 
  -292836.09    13510         0.05 
  -292836.11    13520         0.05 
  -292836.06    13530         0.05 
  -292835.97    13540         0.05 
   -292835.9    13550         0.05 
   -292835.9    13560         0.05 
  -292835.95    13570         0.05 
  -292835.93    13580         0.05 
  -292835.95    13590         0.05 
  -292835.98    13600         0.05 
     -292836    13610         0.05 
  -292836.07    13620         0.05 
  -292836.14    13630         0.05 
  -292836.13    13640         0.05 
  -292836.06    13650         0.05 
  -292836.05    13660         0.05 
  -292836.01    13670         0.05 
  -292836.05    13680         0.05 
  -292836.03    13690         0.05 
   -292836.1    13700         0.05 
  -292836.14    13710         0.05 
  -292836.09    13720         0.05 
  -292836.13    13730         0.05 
  -292836.12    13740         0.05 
  -292836.15    13750         0.05 
  -292836.19    13760         0.05 
   -292836.2    13770         0.05 
   -292836.2    13780         0.05 
  -292836.21    13790         0.05 
   -292836.2    13800         0.05 
  -292836.17    13810         0.05 
  -292836.12    13820         0.05 
  -292836.06    13830         0.05 
  -292836.04    13840         0.05 
  -292835.98    13850         0.05 
     -292836    13860         0.05 
     -292836    13870         0.05 
  -292836.05    13880         0.05 
  -292836.06    13890         0.05 
  -292836.11    13900         0.05 
  -292836.16    13910         0.05 
  -292836.19    13920         0.05 
  -292836.22    13930         0.05 
   -292836.2    13940         0.05 
  -292836.18    13950         0.05 
  -292836.16    13960         0.05 
  -292836.15    13970         0.05 
   -292836.1    13980         0.05 
  -292836.05    13990         0.05 
  -292836.01    14000         0.05 
  -292835.93    14010         0.05 
  -292835.86    14020         0.05 
  -292835.85    14030         0.05 
  -292835.83    14040         0.05 
  -292835.75    14050         0.05 
  -292835.75    14060         0.05 
  -292835.69    14070         0.05 
  -292835.68    14080         0.05 
  -292835.71    14090         0.05 
  -292835.73    14100         0.05 
  -292835.79    14110         0.05 
  -292835.84    14120         0.05 
  -292835.94    14130         0.05 
  -292835.97    14140         0.05 
  -292835.99    14150         0.05 
     -292836    14160         0.05 
  -292835.99    14170         0.05 
   -292836.1    14180         0.05 
  -292836.14    14190         0.05 
  -292836.23    14200         0.05 
  -292836.19    14210         0.05 
  -292836.25    14220         0.05 
  -292836.27    14230         0.05 
   -292836.3    14240         0.05 
  -292836.33    14250         0.05 
  -292836.34    14260         0.05 
  -292836.35    14270         0.05 
  -292836.36    14280         0.05 
  -292836.36    14290         0.05 
  -292836.33    14300         0.05 
  -292836.31    14310         0.05 
  -292836.29    14320         0.05 
  -292836.29    14330         0.05 
  -292836.25    14340         0.05 
  -292836.33    14350         0.05 
  -292836.35    14360         0.05 
  -292836.34    14370         0.05 
  -292836.31    14380         0.05 
  -292836.38    14390         0.05 
  -292836.42    14400         0.05 
  -292836.47    14410         0.05 
  -292836.44    14420         0.05 
  -292836.38    14430         0.05 
  -292836.38    14440         0.05 
  -292836.31    14450         0.05 
  -292836.32    14460         0.05 
  -292836.32    14470         0.05 
  -292836.28    14480         0.05 
  -292836.31    14490         0.05 
  -292836.32    14500         0.05 
  -292836.41    14510         0.05 
  -292836.43    14520         0.05 
  -292836.41    14530         0.05 
   -292836.4    14540         0.05 
  -292836.46    14550         0.05 
  -292836.51    14560         0.05 
  -292836.58    14570         0.05 
  -292836.59    14580         0.05 
  -292836.64    14590         0.05 
  -292836.71    14600         0.05 
  -292836.77    14610         0.05 
  -292836.86    14620         0.05 
  -292836.93    14630         0.05 
     -292837    14640         0.05 
  -292836.99    14650         0.05 
  -292837.01    14660         0.05 
  -292837.02    14670         0.05 
  -292837.07    14680         0.05 
  -292837.09    14690         0.05 
  -292837.07    14700         0.05 
  -292837.09    14710         0.05 
  -292837.06    14720         0.05 
  -292837.07    14730         0.05 
  -292837.08    14740         0.05 
  -292837.09    14750         0.05 
  -292837.11    14760         0.05 
  -292837.09    14770         0.05 
  -292837.08    14780         0.05 
   -292837.1    14790         0.05 
   -292837.1    14800         0.05 
  -292837.19    14810         0.05 
   -292837.2    14820         0.05 
  -292837.17    14830         0.05 
  -292837.19    14840         0.05 
  -292837.19    14850         0.05 
  -292837.14    14860         0.05 
  -292837.16    14870         0.05 
  -292837.14    14880         0.05 
  -292837.14    14890         0.05 
  -292837.12    14900         0.05 
  -292837.12    14910         0.05 
  -292837.12    14920         0.05 
  -292837.11    14930         0.05 
  -292837.06    14940         0.05 
  -292837.05    14950         0.05 
  -292837.09    14960         0.05 
  -292837.14    14970         0.05 
  -292837.11    14980         0.05 
   -292837.1    14990         0.05 
  -292837.03    15000         0.05 
  -292837.01    15010         0.05 
  -292837.16    15020         0.05 
  -292837.26    15030         0.05 
  -292837.33    15040         0.05 
  -292837.34    15050         0.05 
  -292837.32    15060         0.05 
  -292837.34    15070         0.05 
  -292837.36    15080         0.05 
  -292837.35    15090         0.05 
  -292837.34    15100         0.05 
  -292837.26    15110         0.05 
  -292837.21    15120         0.05 
  -292837.21    15130         0.05 
  -292837.23    15140         0.05 
  -292837.27    15150         0.05 
  -292837.28    15160         0.05 
  -292837.24    15170         0.05 
  -292837.26    15180         0.05 
  -292837.29    15190         0.05 
  -292837.28    15200         0.05 
   -292837.3    15210         0.05 
  -292837.26    15220         0.05 
   -292837.2    15230         0.05 
  -292837.22    15240         0.05 
  -292837.21    15250         0.05 
  -292837.23    15260         0.05 
  -292837.26    15270         0.05 
  -292837.27    15280         0.05 
  -292837.24    15290         0.05 
  -292837.27    15300         0.05 
  -292837.23    15310         0.05 
  -292837.28    15320         0.05 
  -292837.28    15330         0.05 
  -292837.27    15340         0.05 
  -292837.25    15350         0.05 
  -292837.23    15360         0.05 
   -292837.1    15370         0.05 
   -292837.1    15380         0.05 
     -292837    15390         0.05 
  -292836.96    15400         0.05 
  -292836.88    15410         0.05 
  -292836.87    15420         0.05 
   -292836.9    15430         0.05 
  -292836.88    15440         0.05 
  -292836.84    15450         0.05 
   -292836.8    15460         0.05 
  -292836.82    15470         0.05 
  -292836.83    15480         0.05 
  -292836.86    15490         0.05 
  -292836.78    15500         0.05 
  -292836.75    15510         0.05 
  -292836.73    15520         0.05 
  -292836.78    15530         0.05 
  -292836.82    15540         0.05 
  -292836.86    15550         0.05 
  -292836.91    15560         0.05 
  -292836.93    15570         0.05 
  -292836.96    15580         0.05 
  -292836.94    15590         0.05 
  -292836.94    15600         0.05 
  -292836.97    15610         0.05 
  -292836.95    15620         0.05 
  -292837.01    15630         0.05 
  -292837.04    15640         0.05 
  -292837.05    15650         0.05 
  -292837.04    15660         0.05 
     -292837    15670         0.05 
  -292836.99    15680         0.05 
  -292836.98    15690         0.05 
  -292836.97    15700         0.05 
  -292836.94    15710         0.05 
  -292837.03    15720         0.05 
  -292836.94    15730         0.05 
  -292836.99    15740         0.05 
  -292836.98    15750         0.05 
  -292836.97    15760         0.05 
  -292836.98    15770         0.05 
  -292836.94    15780         0.05 
  -292836.92    15790         0.05 
  -292836.96    15800         0.05 
  -292836.94    15810         0.05 
  -292836.95    15820         0.05 
  -292836.92    15830         0.05 
  -292836.92    15840         0.05 
  -292836.89    15850         0.05 
   -292836.9    15860         0.05 
  -292836.88    15870         0.05 
  -292836.89    15880         0.05 
  -292836.91    15890         0.05 
  -292836.89    15900         0.05 
  -292836.96    15910         0.05 
  -292836.94    15920         0.05 
  -292836.96    15930         0.05 
  -292836.97    15940         0.05 
  -292836.89    15950         0.05 
  -292836.88    15960         0.05 
  -292836.83    15970         0.05 
  -292836.84    15980         0.05 
  -292836.84    15990         0.05 
  -292836.81    16000         0.05 
  -292836.77    16010         0.05 
  -292836.78    16020         0.05 
  -292836.83    16030         0.05 
  -292836.93    16040         0.05 
     -292837    16050         0.05 
  -292837.05    16060         0.05 
  -292837.04    16070         0.05 
  -292837.07    16080         0.05 
  -292837.12    16090         0.05 
  -292837.08    16100         0.05 
  -292837.12    16110         0.05 
  -292837.14    16120         0.05 
   -292837.2    16130         0.05 
  -292837.19    16140         0.05 
  -292837.18    16150         0.05 
  -292837.22    16160         0.05 
  -292837.23    16170         0.05 
  -292837.23    16180         0.05 
  -292837.24    16190         0.05 
  -292837.24    16200         0.05 
  -292837.17    16210         0.05 
  -292837.07    16220         0.05 
  -292837.01    16230         0.05 
  -292836.97    16240         0.05 
  -292836.93    16250         0.05 
  -292836.84    16260         0.05 
  -292836.73    16270         0.05 
  -292836.65    16280         0.05 
  -292836.59    16290         0.05 
  -292836.53    16300         0.05 
  -292836.58    16310         0.05 
  -292836.63    16320         0.05 
  -292836.57    16330         0.05 
  -292836.54    16340         0.05 
  -292836.61    16350         0.05 
  -292836.57    16360         0.05 
  -292836.49    16370         0.05 
  -292836.41    16380         0.05 
  -292836.33    16390         0.05 
  -292836.27    16400         0.05 
  -292836.26    16410         0.05 
  -292836.23    16420         0.05 
  -292836.17    16430         0.05 
  -292836.26    16440         0.05 
  -292836.25    16450         0.05 
  -292836.28    16460         0.05 
  -292836.25    16470         0.05 
  -292836.23    16480         0.05 
  -292836.21    16490         0.05 
  -292836.28    16500         0.05 
  -292836.25    16510         0.05 
  -292836.25    16520         0.05 
  -292836.33    16530         0.05 
  -292836.42    16540         0.05 
  -292836.34    16550         0.05 
  -292836.32    16560         0.05 
   -292836.3    16570         0.05 
  -292836.29    16580         0.05 
  -292836.24    16590         0.05 
  -292836.21    16600         0.05 
  -292836.26    16610         0.05 
  -292836.28    16620         0.05 
  -292836.32    16630         0.05 
   -292836.3    16640         0.05 
  -292836.36    16650         0.05 
  -292836.46    16660         0.05 
  -292836.56    16670         0.05 
  -292836.59    16680         0.05 
  -292836.62    16690         0.05 
  -292836.69    16700         0.05 
  -292836.66    16710         0.05 
  -292836.71    16720         0.05 
  -292836.78    16730         0.05 
  -292836.83    16740         0.05 
  -292836.84    16750         0.05 
  -292836.98    16760         0.05 
  -292837.04    16770         0.05 
  -292837.12    16780         0.05 
  -292837.16    16790         0.05 
  -292837.31    16800         0.05 
  -292837.39    16810         0.05 
  -292837.38    16820         0.05 
  -292837.32    16830         0.05 
  -292837.33    16840         0.05 
  -292837.34    16850         0.05 
  -292837.36    16860         0.05 
  -292837.42    16870         0.05 
  -292837.47    16880         0.05 
   -292837.5    16890         0.05 
  -292837.53    16900         0.05 
  -292837.51    16910         0.05 
   -292837.6    16920         0.05 
  -292837.69    16930         0.05 
  -292837.68    16940         0.05 
  -292837.64    16950         0.05 
  -292837.55    16960         0.05 
  -292837.54    16970         0.05 
  -292837.51    16980         0.05 
  -292837.57    16990         0.05 
  -292837.51    17000         0.05 
  -292837.56    17010         0.05 
  -292837.57    17020         0.05 
  -292837.58    17030         0.05 
  -292837.56    17040         0.05 
   -292837.6    17050         0.05 
  -292837.64    17060         0.05 
  -292837.66    17070         0.05 
  -292837.76    17080         0.05 
  -292837.83    17090         0.05 
  -292837.78    17100         0.05 
  -292837.76    17110         0.05 
  -292837.77    17120         0.05 
  -292837.78    17130         0.05 
   -292837.8    17140         0.05 
  -292837.78    17150         0.05 
  -292837.69    17160         0.05 
  -292837.68    17170         0.05 
  -292837.62    17180         0.05 
  -292837.54    17190         0.05 
  -292837.54    17200         0.05 
  -292837.51    17210         0.05 
  -292837.49    17220         0.05 
  -292837.56    17230         0.05 
  -292837.52    17240         0.05 
  -292837.52    17250         0.05 
  -292837.53    17260         0.05 
   -292837.5    17270         0.05 
  -292837.59    17280         0.05 
  -292837.59    17290         0.05 
  -292837.58    17300         0.05 
  -292837.54    17310         0.05 
  -292837.58    17320         0.05 
  -292837.63    17330         0.05 
  -292837.67    17340         0.05 
  -292837.72    17350         0.05 
  -292837.76    17360         0.05 
  -292837.81    17370         0.05 
  -292837.79    17380         0.05 
  -292837.83    17390         0.05 
  -292837.89    17400         0.05 
  -292837.92    17410         0.05 
  -292837.98    17420         0.05 
  -292838.03    17430         0.05 
     -292838    17440         0.05 
  -292837.99    17450         0.05 
  -292838.01    17460         0.05 
  -292837.95    17470         0.05 
  -292837.95    17480         0.05 
  -292837.91    17490         0.05 
  -292837.93    17500         0.05 
  -292837.95    17510         0.05 
  -292837.93    17520         0.05 
  -292837.83    17530         0.05 
  -292837.77    17540         0.05 
  -292837.82    17550         0.05 
  -292837.77    17560         0.05 
  -292837.74    17570         0.05 
  -292837.77    17580         0.05 
   -292837.8    17590         0.05 
  -292837.79    17600         0.05 
  -292837.74    17610         0.05 
  -292837.74    17620         0.05 
  -292837.71    17630         0.05 
  -292837.71    17640         0.05 
  -292837.79    17650         0.05 
   -292837.8    17660         0.05 
  -292837.79    17670         0.05 
  -292837.85    17680         0.05 
  -292837.86    17690         0.05 
  -292837.92    17700         0.05 
  -292837.93    17710         0.05 
  -292837.98    17720         0.05 
  -292837.94    17730         0.05 
  -292837.95    17740         0.05 
  -292837.95    17750         0.05 
  -292837.84    17760         0.05 
  -292837.86    17770         0.05 
  -292837.74    17780         0.05 
  -292837.75    17790         0.05 
  -292837.73    17800         0.05 
  -292837.64    17810         0.05 
  -292837.57    17820         0.05 
  -292837.52    17830         0.05 
  -292837.51    17840         0.05 
  -292837.51    17850         0.05 
  -292837.45    17860         0.05 
  -292837.39    17870         0.05 
  -292837.41    17880         0.05 
   -292837.4    17890         0.05 
  -292837.48    17900         0.05 
   -292837.5    17910         0.05 
  -292837.44    17920         0.05 
  -292837.41    17930         0.05 
  -292837.38    17940         0.05 
  -292837.36    17950         0.05 
  -292837.43    17960         0.05 
  -292837.44    17970         0.05 
  -292837.47    17980         0.05 
  -292837.45    17990         0.05 
  -292837.46    18000         0.05 
  -292837.46    18010         0.05 
  -292837.43    18020         0.05 
  -292837.43    18030         0.05 
  -292837.39    18040         0.05 
  -292837.32    18050         0.05 
  -292837.29    18060         0.05 
  -292837.17    18070         0.05 
  -292837.19    18080         0.05 
  -292837.11    18090         0.05 
  -292837.12    18100         0.05 
   -292837.1    18110         0.05 
   -292837.1    18120         0.05 
  -292837.06    18130         0.05 
  -292837.09    18140         0.05 
  -292836.98    18150         0.05 
  -292836.91    18160         0.05 
  -292836.89    18170         0.05 
  -292836.75    18180         0.05 
   -292836.7    18190         0.05 
   -292836.7    18200         0.05 
  -292836.75    18210         0.05 
  -292836.75    18220         0.05 
  -292836.73    18230         0.05 
  -292836.65    18240         0.05 
  -292836.65    18250         0.05 
  -292836.59    18260         0.05 
  -292836.52    18270         0.05 
  -292836.54    18280         0.05 
  -292836.54    18290         0.05 
  -292836.56    18300         0.05 
  -292836.53    18310         0.05 
  -292836.53    18320         0.05 
   -292836.5    18330         0.05 
  -292836.54    18340         0.05 
  -292836.63    18350         0.05 
  -292836.72    18360         0.05 
  -292836.78    18370         0.05 
  -292836.86    18380         0.05 
  -292836.95    18390         0.05 
  -292836.94    18400         0.05 
  -292836.92    18410         0.05 
  -292836.89    18420         0.05 
  -292836.85    18430         0.05 
  -292836.86    18440         0.05 
  -292836.84    18450         0.05 
  -292836.85    18460         0.05 
  -292836.87    18470         0.05 
  -292836.83    18480         0.05 
  -292836.83    18490         0.05 
  -292836.82    18500         0.05 
  -292836.82    18510         0.05 
  -292836.81    18520         0.05 
  -292836.92    18530         0.05 
   -292836.9    18540         0.05 
  -292836.96    18550         0.05 
  -292837.07    18560         0.05 
  -292837.11    18570         0.05 
   -292837.2    18580         0.05 
  -292837.32    18590         0.05 
  -292837.37    18600         0.05 
   -292837.4    18610         0.05 
  -292837.46    18620         0.05 
  -292837.55    18630         0.05 
  -292837.62    18640         0.05 
   -292837.6    18650         0.05 
  -292837.58    18660         0.05 
  -292837.53    18670         0.05 
  -292837.47    18680         0.05 
  -292837.45    18690         0.05 
  -292837.43    18700         0.05 
  -292837.39    18710         0.05 
  -292837.37    18720         0.05 
  -292837.35    18730         0.05 
  -292837.43    18740         0.05 
  -292837.43    18750         0.05 
  -292837.54    18760         0.05 
  -292837.57    18770         0.05 
  -292837.51    18780         0.05 
  -292837.48    18790         0.05 
  -292837.45    18800         0.05 
  -292837.36    18810         0.05 
  -292837.37    18820         0.05 
  -292837.41    18830         0.05 
  -292837.41    18840         0.05 
   -292837.4    18850         0.05 
  -292837.41    18860         0.05 
  -292837.37    18870         0.05 
   -292837.4    18880         0.05 
  -292837.36    18890         0.05 
  -292837.23    18900         0.05 
  -292837.28    18910         0.05 
  -292837.25    18920         0.05 
  -292837.38    18930         0.05 
  -292837.37    18940         0.05 
  -292837.37    18950         0.05 
  -292837.33    18960         0.05 
  -292837.36    18970         0.05 
  -292837.38    18980         0.05 
  -292837.39    18990         0.05 
  -292837.37    19000         0.05 
  -292837.38    19010         0.05 
  -292837.41    19020         0.05 
  -292837.42    19030         0.05 
   -292837.4    19040         0.05 
  -292837.38    19050         0.05 
  -292837.42    19060         0.05 
  -292837.48    19070         0.05 
  -292837.53    19080         0.05 
  -292837.57    19090         0.05 
  -292837.58    19100         0.05 
  -292837.61    19110         0.05 
  -292837.69    19120         0.05 
  -292837.72    19130         0.05 
  -292837.75    19140         0.05 
  -292837.73    19150         0.05 
  -292837.67    19160         0.05 
  -292837.63    19170         0.05 
   -292837.6    19180         0.05 
  -292837.57    19190         0.05 
   -292837.5    19200         0.05 
  -292837.49    19210         0.05 
  -292837.52    19220         0.05 
  -292837.49    19230         0.05 
  -292837.37    19240         0.05 
  -292837.36    19250         0.05 
  -292837.27    19260         0.05 
  -292837.25    19270         0.05 
  -292837.18    19280         0.05 
  -292837.18    19290         0.05 
  -292837.21    19300         0.05 
  -292837.14    19310         0.05 
  -292837.07    19320         0.05 
   -292837.1    19330         0.05 
  -292837.09    19340         0.05 
  -292837.11    19350         0.05 
  -292837.02    19360         0.05 
  -292837.02    19370         0.05 
  -292836.97    19380         0.05 
  -292836.93    19390         0.05 
     -292837    19400         0.05 
  -292837.02    19410         0.05 
  -292836.98    19420         0.05 
  -292836.89    19430         0.05 
  -292836.88    19440         0.05 
   -292836.8    19450         0.05 
  -292836.72    19460         0.05 
  -292836.57    19470         0.05 
  -292836.54    19480         0.05 
  -292836.48    19490         0.05 
  -292836.46    19500         0.05 
  -292836.37    19510         0.05 
  -292836.46    19520         0.05 
   -292836.5    19530         0.05 
  -292836.53    19540         0.05 
  -292836.51    19550         0.05 
  -292836.52    19560         0.05 
  -292836.59    19570         0.05 
  -292836.56    19580         0.05 
   -292836.6    19590         0.05 
  -292836.68    19600         0.05 
  -292836.71    19610         0.05 
  -292836.67    19620         0.05 
  -292836.67    19630         0.05 
  -292836.69    19640         0.05 
  -292836.78    19650         0.05 
  -292836.77    19660         0.05 
  -292836.76    19670         0.05 
  -292836.74    19680         0.05 
  -292836.83    19690         0.05 
  -292836.83    19700         0.05 
  -292836.83    19710         0.05 
  -292836.81    19720         0.05 
  -292836.78    19730         0.05 
  -292836.78    19740         0.05 
  -292836.81    19750         0.05 
   -292836.8    19760         0.05 
  -292836.84    19770         0.05 
  -292836.89    19780         0.05 
  -292836.95    19790         0.05 
  -292836.97    19800         0.05 
  -292836.98    19810         0.05 
  -292836.98    19820         0.05 
  -292836.96    19830         0.05 
  -292837.03    19840         0.05 
  -292836.94    19850         0.05 
  -292836.99    19860         0.05 
  -292837.07    19870         0.05 
  -292837.23    19880         0.05 
   -292837.3    19890         0.05 
  -292837.33    19900         0.05 
  -292837.34    19910         0.05 
  -292837.35    19920         0.05 
  -292837.29    19930         0.05 
  -292837.31    19940         0.05 
  -292837.27    19950         0.05 
  -292837.26    19960         0.05 
  -292837.22    19970         0.05 
  -292837.24    19980         0.05 
  -292837.25    19990         0.05 
  -292837.39    20000         0.05 
Loop time of 25501.4 on 2 procs for 20000 steps with 2577 atoms

Performance: 0.003 ns/day, 7083.715 hours/ns, 0.784 timesteps/s
44.3% CPU use with 2 MPI tasks x no OpenMP threads

MPI task timing breakdown:
Section |  min time  |  avg time  |  max time  |%varavg| %total
---------------------------------------------------------------
Pair    | 20263      | 20681      | 21099      | 290.6 | 81.10
Neigh   | 14.671     | 14.719     | 14.766     |   1.2 |  0.06
Comm    | 240.54     | 644.9      | 1049.3     |1592.3 |  2.53
Output  | 7.2311     | 7.4591     | 7.6871     |   8.3 |  0.03
Modify  | 4122.3     | 4126.7     | 4131       |   6.7 | 16.18
Other   |            | 26.93      |            |       |  0.11

Nlocal:    1288.5 ave 1289 max 1288 min
Histogram: 1 0 0 0 0 0 0 0 0 1
Nghost:    4072 ave 4073 max 4071 min
Histogram: 1 0 0 0 0 0 0 0 0 1
Neighs:    289080 ave 289380 max 288779 min
Histogram: 1 0 0 0 0 0 0 0 0 1

Total # of neighbors = 578159
Ave neighs/atom = 224.354
Neighbor list builds = 140
Dangerous builds = 0















Please see the log.cite file for references relevant to this simulation

Total wall time: 7:05:07
