LAMMPS (7 Aug 2019)
# Fe3O4 -- [0, 1, 0][1, 0, 0] grain boundary
# atom types: 1 -- Fe, 2 -- O
# units real: mass = g/mole; dist = Angstroms; time = fs;
# energy = Kcal/mole = 4184 J/mole

units 		real
dimension	3
atom_style	charge
neigh_modify	delay 5
neighbor	0.3 bin

#---------------------Geometry of the model------------------

variable a equal 6.1602
variable b equal 6.1877
variable c equal 6.1868

region box block 0 $(3*v_c) 0 42.4 0 40 units box
region box block 0 18.560400000000001342 0 42.4 0 40 units box
boundary	p p s
create_box 2 box
Created orthogonal box = (0 0 0) to (18.5604 42.4 40)
  2 by 4 by 4 MPI processor grid

read_data	annealedboundary.data	add append
  orthogonal box = (0 0 -0.171776) to (18.5604 42.4 41.6292)
  2 by 4 by 4 MPI processor grid
  reading atoms ...
  2577 atoms
  reading velocities ...
  2577 velocities
  read_data CPU = 0.0110445 secs

region boundary block -1000 1000 -1000 1000 10 22
group boundary region boundary
719 atoms in group boundary
group Fe type 1
1149 atoms in group Fe
group O type 2
1428 atoms in group O
group Feb intersect boundary Fe #Fe in the boundary
312 atoms in group Feb
group Ob intersect boundary O #O in the boundary
407 atoms in group Ob

#---------------Define potential and run minimization

pair_style	reax/c	NULL
pair_coeff	* *	ffield.reax.Fe_O_C_H Fe O
Reading potential file ffield.reax.Fe_O_C_H with DATE: 2011-02-18
fix             2 all qeq/reax 1 0.0 10.0 1e-6 reax/c

compute	  	T all temp
compute 	atomdisp boundary displace/atom
compute		avesqdispFe1 Feb reduce avesq c_atomdisp[1]
compute         avesqdispFe2 Feb reduce avesq c_atomdisp[2]
compute         avesqdispFe3 Feb reduce avesq c_atomdisp[3]
compute         avesqdispFe4 Feb reduce avesq c_atomdisp[4]
compute         avesqdispO1 Ob reduce avesq c_atomdisp[1]
compute         avesqdispO2 Ob reduce avesq c_atomdisp[2]
compute         avesqdispO3 Ob reduce avesq c_atomdisp[3]
compute         avesqdispO4 Ob reduce avesq c_atomdisp[4]

fix 		1 all nve
timestep 	0.2
thermo		10
thermo_style 	custom step pe c_T 	c_avesqdispFe1 c_avesqdispFe2 	c_avesqdispFe3 c_avesqdispFe4 	c_avesqdispO1 c_avesqdispO2 	c_avesqdispO3 c_avesqdispO4

dump		1 all custom 10 dump1500 id type x y z c_atomdisp[4]

velocity	all create 1500 239239239
fix 		3 all temp/rescale 10 1500 1500 1 1.0

run 250000
Neighbor list info ...
  update every 1 steps, delay 5 steps, check yes
  max neighbors/atom: 2000, page size: 100000
  master list distance cutoff = 10.3
  ghost atom cutoff = 10.3
  binsize = 5.15, bins = 4 9 9
  2 neighbor lists, perpetual/occasional/extra = 2 0 0
  (1) pair reax/c, perpetual
      attributes: half, newton off, ghost
      pair build: half/bin/newtoff/ghost
      stencil: half/ghost/bin/3d/newtoff
      bin: standard
  (2) fix qeq/reax, perpetual, copy from (1)
      attributes: half, newton off, ghost
      pair build: copy
      stencil: none
      bin: none
Per MPI rank memory allocation (min/avg/max) = 36.41 | 45.46 | 53.73 Mbytes
Step PotEng c_T c_avesqdispFe1 c_avesqdispFe2 c_avesqdispFe3 c_avesqdispFe4 c_avesqdispO1 c_avesqdispO2 c_avesqdispO3 c_avesqdispO4 
       0   -294261.51         1500            0            0            0            0            0            0            0            0 
      10   -294206.05         1500 9.0409103e-05 9.9237349e-05 9.3752108e-05 0.00028339856 0.00030728235 0.00030448215 0.00031985442 0.00093161892 
      20   -294055.45         1500 0.00036216307 0.00039853249 0.0003757147 0.0011364103 0.0012164457 0.0012123474 0.0012777684 0.0037065615 
      30    -293845.8         1500 0.00081666212 0.00090099097 0.00085980683 0.0025774599  0.002702649  0.002711627 0.0028638039 0.0082780799 
      40   -293587.04         1500  0.001455606 0.0016095394 0.0015248044 0.0045899498 0.0047321886 0.0047818686 0.0050561769  0.014570234 
      50   -293299.92         1500 0.0022807053 0.0025261993 0.0023820671 0.0071889718 0.0072643759 0.0073941411 0.0078195443  0.022478061 
      60   -292994.39         1500  0.003292252 0.0036516121 0.0034465771  0.010390441  0.010253675  0.010508725  0.011104726  0.031867127 
      70   -292676.35         1500 0.0044897732 0.0049845887 0.0046803341  0.014154696  0.013647322   0.01407295  0.014853323  0.042573595 
      80   -292349.93         1500  0.005872726 0.0065214383 0.0060912386  0.018485403  0.017385147  0.018027316  0.018999387  0.054411849 
      90   -292010.32         1500 0.0074395287 0.0082547574 0.0076732623  0.023367548  0.021405978  0.022311245   0.02347675  0.067193973 
     100   -291663.63         1500 0.0091872881  0.010173584 0.0094000059  0.028760878  0.025659349  0.026862445  0.028221171  0.080742964 
     110   -291333.37         1500  0.011111012  0.012265941  0.011304642  0.034681595  0.030097937  0.031618085  0.033162845  0.094878867 
     120   -291022.88         1500  0.013203754  0.014517332  0.013368994  0.041090081  0.034666863  0.036524328  0.038225098   0.10941629 
     130   -290750.89         1500  0.015458735  0.016913362   0.01556003  0.047932127  0.039308336  0.041530388  0.043344791   0.12418352 
     140   -290515.09         1500  0.017865513  0.019438128  0.017874299   0.05517794  0.043964964  0.046583787  0.048470754   0.13901951 
     150   -290321.41         1500  0.020408576   0.02207537  0.020303276  0.062787222  0.048589547  0.051639433  0.053555376   0.15378436 
     160   -290162.05         1500  0.023068769  0.024807832  0.022827506  0.070704107  0.053141832  0.056653499  0.058557219   0.16835255 
     170   -290022.95         1500  0.025824798  0.027619969  0.025394358  0.078839125  0.057591446  0.061587002  0.063436414   0.18261486 
     180   -289892.05         1500  0.028657357  0.030498902   0.02805524  0.087211499  0.061903984  0.066402166  0.068153848      0.19646 
     190   -289765.17         1500  0.031547777  0.033433108  0.030735503  0.095716389  0.066042104  0.071061008  0.072674065   0.20977718 
     200   -289662.12         1500  0.034475742  0.036412433   0.03348007   0.10436825  0.069971482  0.075526967  0.076966442   0.22246489 
     210   -289588.64         1500  0.037423404  0.039423657  0.036294377   0.11314144  0.073669284  0.079770952  0.080997804   0.23443804 
     220   -289522.96         1500  0.040376394  0.042442263  0.039074206   0.12189286  0.077131843  0.083780698  0.084729266   0.24564181 
     230   -289486.06         1500  0.043327031  0.045452827  0.041849484   0.13062934  0.080354028  0.087551574  0.088127196    0.2560328 
     240   -289480.74    1499.3314  0.046264581  0.048445181  0.044626898   0.13933666  0.083320899  0.091066578  0.091177861   0.26556534 
     250   -289497.63         1500  0.049177342  0.051407084  0.047381994   0.14796642  0.086016361   0.09430445  0.093891366   0.27421218 
     260    -289520.7         1500  0.052056872  0.054329302  0.050114483   0.15650066   0.08843895  0.097242143  0.096280405    0.2819615 
     270   -289543.78         1500  0.054892467  0.057207087  0.052813078   0.16491263  0.090584362  0.099866042  0.098354136   0.28880454 
     280   -289567.75         1500  0.057672621  0.060033394   0.05547315   0.17317916  0.092446189   0.10217348   0.10011893   0.29473861 
     290   -289588.52         1500  0.060385461  0.062804868  0.058090944   0.18128127  0.094032043   0.10415913   0.10159142   0.29978259 
     300   -289611.45         1500  0.063020781  0.065523209  0.060668268   0.18921226  0.095358216   0.10582325   0.10279532   0.30397678 
     310   -289643.47         1500  0.065568697  0.068182061  0.063227351   0.19697811  0.096462001   0.10717702   0.10375023   0.30738925 
     320   -289666.43         1500  0.068022986   0.07077422  0.065740535   0.20453774  0.097381897   0.10823714   0.10446743   0.31008647 
     330   -289668.66    1500.2854  0.070379417   0.07329721  0.068251085   0.21192771  0.098154876   0.10903262   0.10493333   0.31212082 
     340   -289677.15         1500  0.072636378   0.07574697  0.070700906   0.21908425  0.098817527   0.10960261   0.10513846   0.31355859 
     350   -289674.61    1499.6695  0.074789284  0.078119345  0.073147252   0.22605588  0.099386676   0.10998325   0.10509287    0.3144628 
     360   -289664.02         1500  0.076837341  0.080411769  0.075507546   0.23275666  0.099875056   0.11019462   0.10481756   0.31488723 
     370   -289657.38    1499.1193  0.078781759  0.082622007  0.078116754   0.23952052   0.10030029   0.11025733   0.10434345   0.31490107 
     380    -289645.8         1500  0.080620788  0.084751093  0.080381483   0.24575336    0.1006738    0.1101962   0.10370556   0.31457555 
     390   -289622.44         1500  0.082353801  0.086800105  0.083032085   0.25218599   0.10100329   0.11003821   0.10295907   0.31400057 
     400   -289602.04         1500  0.083981072  0.088764071  0.085738322   0.25848347   0.10130999   0.10981729   0.10216589   0.31329318 
     410   -289583.32         1500   0.08550456  0.090642519  0.087836966   0.26398404   0.10160601   0.10956768   0.10136125   0.31253495 
     420   -289570.09         1500  0.086932082     0.092435  0.090536528   0.26990361   0.10190099   0.10930932   0.10056626   0.31177657 
     430   -289558.96         1500  0.088269987  0.094139286  0.092492748   0.27490202   0.10220372   0.10906162  0.099814339   0.31107967 
     440   -289563.36     1500.635  0.089524789  0.095754012  0.095129003    0.2804078   0.10252207    0.1088473  0.099141716   0.31051109 
     450   -289570.75         1500  0.090703997  0.097275195  0.096939384   0.28491858   0.10286399   0.10868815  0.098592516   0.31014465 
     460   -289568.66    1499.7083  0.091807471  0.098692564  0.099446088   0.28994612   0.10323274   0.10859853  0.098211964   0.31004323 
     470   -289569.95    1499.8296  0.092842992   0.10000403   0.10111821   0.29396523   0.10362751    0.1085772  0.098022739   0.31022744 
     480    -289584.8         1500  0.093819941    0.1012103   0.10341861   0.29844885   0.10403931   0.10862356  0.098028925   0.31069179 
     490   -289588.55    1500.4198  0.094741847   0.10231457   0.10492299   0.30197941   0.10446084   0.10873236  0.098234915   0.31142811 
     500   -289587.51    1500.2661  0.095609747   0.10332235   0.10694272   0.30587481   0.10488771   0.10889439  0.098645955   0.31242805 
     510   -289577.53         1500  0.096421785   0.10423902   0.10827241   0.30893321   0.10530345   0.10910867  0.099260413   0.31367253 
     520   -289580.11    1500.3401  0.097180086   0.10507011   0.10951733   0.31176753   0.10569246   0.10938245   0.10007241   0.31514732 
     530   -289573.94    1499.5603  0.097898611   0.10581526   0.11113626   0.31485012   0.10605408   0.10972122   0.10108286   0.31685816 
     540    -289574.4    1499.6709  0.098588355   0.10647561   0.11223095   0.31729492   0.10639077   0.11013676   0.10228427   0.31881181 
     550   -289573.18    1499.5572  0.099255419   0.10706156    0.1134226   0.31973958    0.1067075   0.11065605   0.10365637   0.32101992 
     560   -289569.26    1499.0744  0.099902366   0.10758331   0.11437317   0.32185885   0.10701574    0.1112958   0.10518347   0.32349501 
     570   -289575.16    1499.9051   0.10053125   0.10805019   0.11528225   0.32386369   0.10733281   0.11205842   0.10685001   0.32624123 
     580   -289593.79         1500   0.10115116   0.10847417   0.11608889   0.32571422   0.10768044   0.11293273   0.10863989   0.32925306 
     590   -289633.23         1500   0.10177291   0.10886902   0.11671272   0.32735464   0.10808206   0.11390275   0.11054161   0.33252642 
     600   -289682.16         1500     0.102403   0.10924996   0.11736587   0.32901883   0.10855373   0.11496823     0.112544   0.33606595 
     610   -289713.82         1500   0.10304705    0.1096301   0.11813741   0.33081456   0.10909873   0.11611986   0.11463353   0.33985212 
     620   -289720.51    1500.8241   0.10370698   0.11002591   0.11862072   0.33235361     0.109721   0.11734126   0.11678232   0.34384458 
     630   -289719.28    1500.6705   0.10438358   0.11044144   0.11995668   0.33478169   0.11043994     0.118625   0.11898193   0.34804687 
     640   -289720.36    1500.8586   0.10507888   0.11087403   0.12026439    0.3362173   0.11126583   0.11997689   0.12122594   0.35246866 
     650   -289708.21    1499.3121   0.10578959   0.11132257   0.12138127   0.33849342   0.11219193   0.12140345   0.12348915   0.35708453 
     660   -289694.35         1500   0.10650382   0.11178482   0.12154944   0.33983808   0.11321634   0.12291619   0.12573258   0.36186512 
     670   -289683.57         1500   0.10722285   0.11225626   0.12231787   0.34179698   0.11433854   0.12452416   0.12792652   0.36678922 
     680   -289672.95         1500   0.10794877   0.11272897   0.12236958   0.34304731   0.11553923   0.12623033   0.13004848   0.37181804 
     690    -289662.4         1500   0.10868492   0.11319196   0.12305785   0.34493473   0.11679817   0.12802899   0.13209168   0.37691884 
     700   -289645.88         1500   0.10943387    0.1136416    0.1230196   0.34609507    0.1180891   0.12990164   0.13404666    0.3820374 
     710    -289627.2         1500   0.11019693   0.11407789   0.12392033   0.34819515   0.11938782   0.13181747   0.13590032   0.38710561 
     720   -289613.51         1500   0.11097417   0.11450358   0.12381613   0.34929388   0.12068102   0.13374252   0.13762363   0.39204718 
     730   -289610.22    1499.5225   0.11176193   0.11492167   0.12435059   0.35103418    0.1219621    0.1356386   0.13917983   0.39678053 
     740   -289606.69     1499.037   0.11255573   0.11533373    0.1241965   0.35208596   0.12322783   0.13746071   0.14056474   0.40125328 
     750   -289599.33         1500    0.1133482   0.11574418   0.12441398   0.35350637   0.12447675   0.13917677   0.14177832   0.40543185 
     760   -289582.17         1500   0.11413248   0.11615681   0.12423308   0.35452237   0.12570194   0.14076131    0.1428296   0.40929286 
     770   -289551.71         1500   0.11491159   0.11656939     0.124184   0.35566498   0.12689943   0.14220761   0.14372984   0.41283688 
     780   -289524.37         1500   0.11568811   0.11698182   0.12401096   0.35668089   0.12806454   0.14351525   0.14449201    0.4160718 
     790   -289501.18         1500   0.11645716   0.11738994   0.12373681   0.35758391    0.1292076    0.1446805   0.14513592   0.41902402 
     800   -289479.49         1500    0.1172171   0.11778879   0.12359686   0.35860274   0.13033322   0.14570185   0.14567966   0.42171474 
     810   -289456.05         1500   0.11796788   0.11817425   0.12313525   0.35927738   0.13144137   0.14658793   0.14613274   0.42416203 
     820   -289412.51         1500   0.11871172   0.11854366   0.12304048   0.36029586   0.13252778   0.14735146   0.14649171   0.42637095 
     830   -289365.66         1500   0.11945014    0.1188968   0.12238897   0.36073591   0.13358097   0.14799965   0.14674453   0.42832515 
     840   -289331.08         1500   0.12017915   0.11923968   0.12235137   0.36177019   0.13457951   0.14850778   0.14686919   0.42995648 
     850   -289302.87         1500   0.12089375   0.11958042   0.12149951   0.36197368   0.13549738   0.14887178   0.14685498   0.43122413 
     860   -289280.14         1500   0.12159004   0.11992406   0.12152876   0.36304286   0.13633715    0.1490846   0.14671877   0.43214053 
     870   -289271.91         1500   0.12226588   0.12027396   0.12074173   0.36328156   0.13710277   0.14914849   0.14645891   0.43271018 
     880   -289282.55         1500   0.12291254   0.12063488   0.12085706   0.36440448   0.13777597   0.14909346   0.14607488   0.43294432 
     890   -289330.05         1500   0.12351928   0.12100931   0.12061348   0.36514207   0.13835412   0.14894616    0.1455766   0.43287687 
     900      -289394         1500   0.12407863   0.12139611   0.12079546   0.36627019    0.1388485   0.14872143   0.14498688   0.43255681 
     910   -289451.45         1500   0.12458727   0.12179272   0.12059529   0.36697527   0.13927652   0.14842238   0.14433139   0.43203029 
     920   -289512.87         1500   0.12504406   0.12220085   0.12081749   0.36806239   0.13966436   0.14805343   0.14364064   0.43135842 
     930   -289578.93         1500   0.12545674   0.12262022   0.12080919   0.36888615   0.14002733   0.14762051   0.14295557   0.43060341 
     940   -289651.86         1500   0.12583097   0.12305309   0.12105349   0.36993755    0.1403683   0.14714642   0.14230873   0.42982346 
     950   -289713.94         1500   0.12616482   0.12349805   0.12120246   0.37086534   0.14069188   0.14665843   0.14172558   0.42907589 
     960   -289749.56         1500   0.12645348   0.12395419   0.12144551   0.37185318   0.14099658   0.14618115   0.14121295   0.42839068 
     970   -289743.82    1499.2569   0.12669582   0.12442196   0.12168095   0.37279873   0.14129203   0.14573688   0.14074588    0.4277748 
     980   -289711.55         1500   0.12689427   0.12489738    0.1217836   0.37357526   0.14157845   0.14534035   0.14032425   0.42724304 
     990   -289668.06         1500   0.12705517   0.12537614   0.12198936   0.37442067   0.14184291   0.14500877   0.13996748   0.42681915 
    1000   -289622.14         1500   0.12718673   0.12585969   0.12203224   0.37507867   0.14209319   0.14474503   0.13969309   0.42653131 
    1010   -289566.97         1500   0.12729857   0.12635079   0.12219973   0.37584909   0.14234524   0.14454475   0.13951482   0.42640482 
    1020   -289509.86         1500   0.12739989   0.12685515   0.12228511   0.37654015   0.14260815   0.14442169   0.13942093   0.42645077 
    1030   -289459.03         1500   0.12749696   0.12737564   0.12241016   0.37728276   0.14287267   0.14440091   0.13938477   0.42665836 
    1040   -289415.45         1500   0.12759269   0.12790456   0.12268615   0.37818339   0.14312798    0.1444893   0.13937282   0.42699011 
    1050      -289391         1500   0.12769414   0.12843509   0.12278871   0.37891795   0.14336624   0.14469253   0.13935072   0.42740949 
    1060   -289382.94         1500   0.12781063   0.12896646   0.12350954   0.38028663   0.14358031   0.14501224   0.13931572   0.42790828 
    1070   -289399.28         1500   0.12794817   0.12950144   0.12362326   0.38107287   0.14376398   0.14544398   0.13926998   0.42847795 
    1080   -289429.99         1500    0.1281064   0.13003963    0.1243982   0.38254424   0.14391414   0.14597617    0.1392042   0.42909452 
    1090   -289454.35         1500   0.12827632   0.13057289    0.1245481   0.38339732   0.14403951   0.14657439   0.13911975   0.42973365 
    1100   -289470.99         1500   0.12845427   0.13109464   0.12523725   0.38478616   0.14416166    0.1471901   0.13902601   0.43037777 
    1110   -289486.54         1500   0.12864708   0.13160277    0.1254333   0.38568315   0.14431242   0.14776151   0.13893449   0.43100842 
    1120   -289503.02         1500   0.12886228   0.13209153   0.12598688   0.38694069   0.14449337   0.14827241   0.13885042   0.43161619 
    1130   -289517.87         1500   0.12910211   0.13255558   0.12623418   0.38789186   0.14470427   0.14871508   0.13879948   0.43221882 
    1140   -289519.84    1500.2576   0.12936335   0.13298761   0.12661631   0.38896727   0.14494896   0.14907685   0.13880921   0.43283502 
    1150   -289511.28    1499.1369   0.12963632   0.13337786   0.12691617   0.38993035   0.14522159   0.14934787   0.13889777   0.43346723 
    1160    -289494.8         1500    0.1299152    0.1337194   0.12723888   0.39087348   0.14551771   0.14952612   0.13908072   0.43412455 
    1170   -289465.94         1500   0.13019758   0.13401038   0.12746229   0.39167026   0.14583304   0.14960694   0.13937739   0.43481737 
    1180   -289431.04         1500   0.13047896   0.13425435   0.12782236   0.39255567   0.14615597   0.14958647   0.13980126   0.43554369 
    1190    -289381.9         1500   0.13074909   0.13445718   0.12788416   0.39309043   0.14647168   0.14948515    0.1403457   0.43630253 
    1200   -289336.78         1500   0.13099834   0.13461934    0.1282885   0.39390618   0.14677182   0.14932784   0.14098793   0.43708759 
    1210   -289286.67         1500   0.13122077   0.13473813     0.128434   0.39439291   0.14705159   0.14915152   0.14170163   0.43790475 
    1220   -289243.72         1500   0.13141364   0.13480685   0.12885435   0.39507483   0.14727476   0.14903879   0.14245592   0.43876947 
    1230   -289214.81         1500   0.13157778   0.13482464   0.12927655   0.39567896   0.14742965   0.14904004   0.14322891    0.4396986 
    1240   -289198.48         1500   0.13171967   0.13479547   0.12971116    0.3962263   0.14752274   0.14917026   0.14401031   0.44070331 
    1250   -289203.87    1500.7112   0.13184975   0.13472107   0.13013723   0.39670806   0.14756338   0.14943743   0.14480884   0.44180965 
    1260   -289232.78         1500   0.13198004   0.13459981    0.1304838   0.39706365   0.14757108   0.14984746   0.14564167   0.44306021 
    1270   -289272.26         1500   0.13212021   0.13443066   0.13092204   0.39747291   0.14756349    0.1503903    0.1465172     0.444471 
    1280   -289305.47         1500   0.13227063   0.13421858   0.13119597   0.39768519    0.1475524   0.15106661   0.14744349    0.4460625 
    1290   -289330.76         1500   0.13242743   0.13397183    0.1316418   0.39804106   0.14755716   0.15185471   0.14844499   0.44785686 
    1300   -289346.88         1500   0.13259266   0.13369966   0.13173208    0.3980244   0.14758625    0.1527274   0.14953517   0.44984881 
    1310   -289367.73         1500   0.13276636   0.13341244   0.13215804   0.39833683   0.14762166   0.15368979   0.15069829   0.45200974 
    1320   -289394.95         1500   0.13294479   0.13311465    0.1320144   0.39807384   0.14765221   0.15475256   0.15191094   0.45431572 
    1330   -289419.06         1500   0.13312938   0.13280927   0.13241257   0.39835121   0.14767479   0.15592644   0.15314211   0.45674334 
    1340   -289451.49         1500     0.133324   0.13250176   0.13223668   0.39806244   0.14769948    0.1572237   0.15436001   0.45928319 
    1350    -289482.6         1500   0.13353218   0.13219554   0.13260999    0.3983377   0.14776154   0.15864915   0.15553334   0.46194403 
    1360   -289521.46         1500   0.13376014   0.13188782    0.1329793   0.39862726    0.1478819   0.16018593   0.15663364   0.46470147 
    1370   -289554.88         1500   0.13401133   0.13158073   0.13331242   0.39890447   0.14806197   0.16178915   0.15763647   0.46748759 
    1380   -289579.93         1500   0.13428443   0.13128906   0.13382411    0.3993976   0.14829498   0.16339808   0.15852346   0.47021653 
    1390   -289601.07         1500   0.13457597   0.13103347    0.1341075   0.39971695   0.14857856   0.16495617   0.15929023   0.47282496 
    1400   -289616.53         1500   0.13488345    0.1308272   0.13436698   0.40007763    0.1489154   0.16643711   0.15993342   0.47528593 
    1410   -289603.79         1500   0.13520367   0.13068373   0.13487001   0.40075741   0.14930779   0.16783686   0.16044739   0.47759204 
    1420   -289579.26         1500   0.13553259   0.13061009   0.13509929   0.40124197   0.14976327   0.16915955   0.16082171   0.47974453 
    1430   -289552.98         1500   0.13587022    0.1306057   0.13554719   0.40202311   0.15029105   0.17040788   0.16104361   0.48174254 
    1440   -289531.24         1500   0.13621768   0.13066627   0.13577422   0.40265817   0.15088713   0.17158404    0.1611065   0.48357767 
    1450   -289523.35         1500   0.13657063   0.13078089   0.13635701   0.40370853   0.15153806   0.17267489   0.16101729   0.48523023 
    1460   -289515.03         1500    0.1369267   0.13093475   0.13660877   0.40447022   0.15223171    0.1736839   0.16079069    0.4867063 
    1470   -289498.46         1500   0.13728268   0.13111148   0.13756932   0.40596348   0.15295566   0.17464414   0.16045979   0.48805959 
    1480   -289491.39    1499.1025    0.1376264   0.13130162   0.13784696   0.40677498   0.15369706    0.1755676   0.16008306   0.48934772 
    1490   -289498.83    1500.0621   0.13794471   0.13150062   0.13900945   0.40845479   0.15445648   0.17646767   0.15970462   0.49062877 
    1500   -289511.63         1500   0.13823055    0.1316973   0.13929507   0.40922291   0.15523515   0.17737257   0.15934524   0.49195296 
    1510   -289533.25         1500    0.1384776   0.13189222    0.1405009   0.41087072   0.15603145   0.17829864   0.15902064   0.49335073 
    1520   -289547.09         1500   0.13868979   0.13208328   0.14079197   0.41156503   0.15684758   0.17923537   0.15873867   0.49482162 
    1530   -289550.03    1500.3903   0.13887523   0.13226772   0.14209532   0.41323827   0.15768621   0.18016314   0.15849105   0.49634041 
    1540    -289546.7    1499.9706   0.13904204   0.13243934   0.14237576   0.41385714   0.15856421   0.18106203   0.15827145   0.49789769 
    1550   -289538.44         1500    0.1391925   0.13257812   0.14266009   0.41443071   0.15948825   0.18190979   0.15810136    0.4994994 
    1560   -289542.52    1500.5604   0.13932649   0.13266992   0.14371456   0.41571097   0.16045758   0.18269232   0.15799535   0.50114525 
    1570   -289560.26         1500   0.13944832   0.13271036   0.14420085   0.41635953   0.16146922   0.18340026   0.15796203   0.50283151 
    1580   -289580.14         1500   0.13956678   0.13269846   0.14457657    0.4168418   0.16253215   0.18402248    0.1580099   0.50456453 
    1590   -289597.98         1500   0.13968405   0.13263466   0.14441818   0.41673689   0.16367762   0.18454834   0.15814734   0.50637329 
    1600   -289606.02         1500   0.13979824   0.13252843   0.14486298   0.41718965    0.1649147   0.18495865   0.15838456   0.50825791 
    1610   -289592.19         1500   0.13990735   0.13238614   0.14431511    0.4166086   0.16623871   0.18526041   0.15872555   0.51022467 
    1620   -289576.56         1500   0.14001244   0.13221891   0.14481976   0.41705111   0.16762214   0.18547224   0.15916409   0.51225846 
    1630   -289553.96         1500   0.14011473   0.13203815   0.14495677   0.41710965   0.16903648   0.18559399   0.15968568   0.51431615 
    1640   -289527.86         1500   0.14021108   0.13185009   0.14550228   0.41756346   0.17046205   0.18561458   0.16027798   0.51635461 
    1650   -289501.41         1500   0.14030178   0.13165369   0.14586762    0.4178231   0.17188818   0.18553294   0.16093435   0.51835547 
    1660   -289471.13         1500   0.14038621   0.13144067   0.14640717   0.41823406    0.1733078   0.18535703   0.16165166    0.5203165 
    1670   -289448.17         1500   0.14046443   0.13119796   0.14657413   0.41823652    0.1747194   0.18509391   0.16242454   0.52223785 
    1680   -289417.42         1500   0.14055032   0.13091415   0.14708269   0.41854716   0.17615046   0.18473718   0.16322608   0.52411373 
    1690   -289387.48         1500   0.14065064   0.13058441   0.14696728   0.41820233   0.17761792   0.18428041   0.16404404   0.52594237 
    1700   -289368.11         1500   0.14076738   0.13021352     0.147416    0.4183969     0.179146   0.18373451   0.16486958   0.52775009 
    1710   -289352.94         1500   0.14089559   0.12982359   0.14704632   0.41776551   0.18073287   0.18313883   0.16569074   0.52956244 
    1720   -289340.41         1500    0.1410228    0.1294394   0.14740824   0.41787043   0.18235656   0.18252785   0.16650974   0.53139415 
    1730   -289322.58         1500   0.14114651   0.12907338   0.14688659   0.41710647   0.18399433    0.1819009   0.16731442   0.53320966 
    1740   -289312.69         1500   0.14127008   0.12873129   0.14634956   0.41635092   0.18562714   0.18125354   0.16809358   0.53497427 
    1750    -289304.2         1500    0.1413959   0.12841394   0.14661097   0.41642081   0.18724189   0.18058979   0.16884322    0.5366749 
    1760   -289286.09         1500    0.1415218   0.12812186   0.14601674    0.4156604   0.18884265   0.17992139   0.16955871   0.53832275 
    1770   -289247.69         1500   0.14164241   0.12785278   0.14623815   0.41573334   0.19044429   0.17924985   0.17023156   0.53992569 
    1780    -289203.5         1500   0.14176396   0.12759214   0.14567148   0.41502758   0.19204237   0.17852943   0.17086438   0.54143618 
    1790   -289168.07         1500   0.14189757   0.12732905   0.14588717   0.41511379   0.19364155   0.17773685    0.1714497    0.5428281 
    1800   -289159.28         1500   0.14204384   0.12707089   0.14545122   0.41456596   0.19521375   0.17688951   0.17198418   0.54408744 
    1810   -289174.02         1500   0.14220148   0.12683124   0.14571074   0.41474346   0.19671387   0.17599662      0.17245    0.5451605 
    1820   -289186.65         1500   0.14237048    0.1266195   0.14547939   0.41446937    0.1981171    0.1750848   0.17282259   0.54602449 
    1830   -289187.35    1500.0376   0.14255181   0.12643999   0.14581585   0.41480764    0.1994042   0.17420109   0.17307805   0.54668334 
    1840   -289176.04         1500   0.14274411     0.126295   0.14619653   0.41523564   0.20055048   0.17335402   0.17318329   0.54708779 
    1850   -289163.84         1500   0.14294344   0.12618406    0.1466185     0.415746     0.201541   0.17255221   0.17310309    0.5471963 
    1860   -289155.41         1500   0.14314644    0.1261064   0.14708863   0.41634147   0.20237145   0.17180491   0.17281272   0.54698907 
    1870   -289141.09         1500   0.14334977   0.12605937   0.14763024   0.41703938   0.20305259   0.17111523   0.17231193   0.54647975 
    1880    -289130.8         1500   0.14354559   0.12604039   0.14820422    0.4177902   0.20360759   0.17048227   0.17162477   0.54571463 
    1890   -289133.65     1500.283   0.14372814   0.12604409   0.14875079   0.41852303   0.20405822   0.16991168   0.17078449   0.54475438 
    1900    -289135.6    1500.5001   0.14391086   0.12605572   0.14929208   0.41925866   0.20443024    0.1693786   0.16981269   0.54362153 
    1910   -289144.05         1500   0.14410185   0.12606063   0.15004984   0.42021232   0.20473376    0.1688673   0.16873215   0.54233322 
    1920   -289162.87         1500   0.14429865   0.12604859    0.1508793   0.42122654   0.20497054   0.16838984   0.16758066   0.54094104 
    1930   -289180.71         1500   0.14449666    0.1260128   0.15158692   0.42209638   0.20513155   0.16795758    0.1664076   0.53949673 
    1940   -289190.79         1500   0.14469292   0.12594595   0.15255182   0.42319068   0.20519249   0.16758092   0.16526701   0.53804041 
    1950   -289200.34         1500   0.14488031   0.12584226   0.15367965   0.42440222   0.20511056   0.16727966   0.16421625   0.53660647 
    1960   -289207.49    1500.9811   0.14505357   0.12570072   0.15478768   0.42554197   0.20484989   0.16705857   0.16331698   0.53522544 
    1970   -289204.42    1500.6214   0.14521334   0.12552453   0.15619621   0.42693408   0.20440412   0.16690465   0.16262267   0.53393145 
    1980   -289188.88         1500   0.14535825    0.1253173   0.15746687   0.42814242     0.203763   0.16680153   0.16216921   0.53273374 
    1990   -289173.75         1500   0.14548859   0.12508794   0.15898992   0.42956645   0.20291159    0.1667415   0.16196674   0.53161984 
    2000   -289165.67         1500     0.145616   0.12483936   0.16035211   0.43080747   0.20184913   0.16669544   0.16202663    0.5305712 
    2010   -289165.63    1500.0412   0.14575024   0.12457315   0.16187508   0.43219847   0.20059036   0.16662733    0.1623422   0.52955989 
    2020   -289164.15    1499.8517   0.14588007   0.12430029   0.16324275   0.43342311   0.19914977   0.16653084   0.16289518    0.5285758 
    2030   -289176.48         1500   0.14599637   0.12403009   0.16467954     0.434706   0.19754953   0.16640928   0.16366865   0.52762746 
    2040   -289197.71         1500   0.14610485   0.12376489    0.1660533   0.43592304   0.19583606   0.16626795     0.164635   0.52673901 
    2050   -289223.63         1500   0.14620723   0.12350914   0.16739655   0.43711292   0.19404354   0.16611648   0.16574774   0.52590776 
    2060   -289236.68         1500   0.14629749   0.12327459   0.16876248   0.43833456   0.19219772   0.16597099   0.16696309    0.5251318 
    2070   -289243.74    1500.9545   0.14636642   0.12307541   0.16997137    0.4394132   0.19031603    0.1658587   0.16825085   0.52442558 
    2080   -289265.88         1500   0.14641483   0.12291887   0.17132907   0.44066277   0.18841911   0.16580009   0.16958548   0.52380468 
    2090   -289294.81         1500   0.14646194    0.1228052   0.17265263   0.44191977   0.18653315   0.16579434   0.17095881    0.5232863 
    2100   -289311.66         1500   0.14650032   0.12273458   0.17359833   0.44283324   0.18468096   0.16579826   0.17237098    0.5228502 
    2110   -289325.72         1500   0.14651689   0.12270851   0.17482585   0.44405125   0.18290758   0.16577049    0.1738034   0.52248147 
    2120    -289327.2    1500.1886     0.146503    0.1227281    0.1755085    0.4447396    0.1812725    0.1656853    0.1752245    0.5221823 
    2130   -289323.72     1499.734   0.14646453   0.12279481   0.17662007   0.44587941   0.17980997   0.16552116   0.17662184   0.52195298 
    2140   -289326.32    1500.0654   0.14641174   0.12290989   0.17706234   0.44638397     0.178546   0.16527277   0.17798109   0.52179986 
    2150   -289330.78    1500.6494   0.14635043   0.12307515   0.17805162   0.44747721   0.17749528   0.16495758   0.17928125   0.52173411 
    2160   -289329.85      1500.54   0.14628683   0.12329082   0.17850653   0.44808418   0.17666278   0.16461381   0.18049249   0.52176908 
    2170   -289329.63    1500.5361     0.146233   0.12355514   0.17933453   0.44912267   0.17605271    0.1642764   0.18160746   0.52193657 
    2180   -289334.23         1500   0.14618707   0.12387275   0.18038856   0.45044838   0.17565968   0.16395334   0.18264097     0.522254 
    2190   -289329.48    1499.4106   0.14614031    0.1242498   0.18104858   0.45143869   0.17547441   0.16363818   0.18360789   0.52272048 
    2200   -289330.75    1499.5817   0.14608676   0.12468424   0.18229703   0.45306803   0.17548259   0.16332306   0.18451426    0.5233199 
    2210   -289332.49    1499.8219   0.14602383   0.12517377   0.18281951   0.45401711   0.17564339   0.16300356   0.18537667   0.52402362 
    2220   -289322.19         1500   0.14595149    0.1257145   0.18329042   0.45495642   0.17589609    0.1626931   0.18621748   0.52480667 
    2230   -289297.38         1500   0.14586979   0.12629802   0.18431948   0.45648729   0.17618496   0.16240301   0.18706305   0.52565102 
    2240   -289262.86         1500   0.14578158   0.12691852   0.18470689   0.45740699   0.17647049    0.1621305   0.18794271    0.5265437 
    2250   -289218.62         1500    0.1456917   0.12757232   0.18549536   0.45875938   0.17672969   0.16186586    0.1888816   0.52747716 
    2260    -289175.5         1500   0.14560546   0.12825841   0.18575874   0.45962261   0.17695422   0.16159673    0.1898983   0.52844925 
    2270   -289135.31         1500   0.14552729   0.12897502    0.1867707   0.46127301   0.17713501   0.16131581   0.19100082   0.52945165 
    2280   -289087.61         1500   0.14546159   0.12972077    0.1868801   0.46206246   0.17725648    0.1610205   0.19218549   0.53046248 
    2290   -289037.56         1500   0.14541135    0.1305006   0.18765658   0.46356853   0.17731228   0.16071052   0.19345333   0.53147612 
    2300    -288994.1         1500   0.14537521   0.13131707   0.18761363   0.46430591   0.17730973   0.16037708   0.19478347   0.53247029 
    2310   -288959.04         1500    0.1453478   0.13216913   0.18807276   0.46558969   0.17724827   0.16000838   0.19616206   0.53341872 
    2320   -288915.99         1500   0.14532883   0.13305178   0.18792733   0.46630794   0.17715259   0.15960144   0.19758455   0.53433858 
    2330    -288869.3         1500   0.14532593   0.13395493   0.18808205   0.46736291   0.17706556   0.15917558   0.19903054   0.53527168 
    2340   -288824.24         1500   0.14534019   0.13486529   0.18790157   0.46810705   0.17700338   0.15872958   0.20047071   0.53620368 
    2350   -288790.76         1500    0.1453685   0.13576578   0.18771719   0.46885146   0.17696722   0.15826149   0.20187657   0.53710528 
    2360   -288777.13         1500   0.14541034    0.1366403   0.18767931   0.46972996   0.17694049    0.1577718   0.20323571   0.53794799 
    2370   -288777.48     1500.033   0.14545992     0.137479   0.18750786   0.47044678   0.17690013   0.15726796   0.20454069   0.53870879 
    2380   -288777.45    1500.0305    0.1455093    0.1382732   0.18725287   0.47103538    0.1768396   0.15676461   0.20577467   0.53937888 
    2390   -288790.36         1500   0.14555593   0.13901038   0.18707038   0.47163669   0.17676348   0.15627651   0.20691843   0.53995842 
    2400   -288822.81         1500   0.14560055   0.13967665   0.18650258   0.47177978    0.1766882   0.15581087   0.20796449   0.54046356 
    2410   -288881.49         1500   0.14564924   0.14026501   0.18626633   0.47218059   0.17664477   0.15535612   0.20893164   0.54093253 
    2420   -288945.27         1500   0.14569626   0.14078064   0.18543707   0.47191397   0.17664157    0.1549049   0.20983632   0.54138279 
    2430   -289012.87         1500   0.14573125   0.14122844   0.18519829   0.47215799   0.17667321    0.1544681   0.21068044   0.54182176 
    2440   -289082.46         1500   0.14575242    0.1416063   0.18517849    0.4725372   0.17673135   0.15405078   0.21145946   0.54224159 
    2450   -289140.92         1500   0.14574401   0.14191136    0.1849584   0.47261377    0.1768052   0.15362804   0.21216636   0.54259961 
    2460   -289168.01         1500   0.14569621   0.14214717   0.18517255   0.47301593   0.17690041   0.15320226   0.21279016   0.54289284 
    2470   -289187.67         1500   0.14560758   0.14231766    0.1850311   0.47295633   0.17704098     0.152795   0.21331425   0.54315023 
    2480   -289199.13         1500   0.14548627     0.142422   0.18519255   0.47310081   0.17725632   0.15242309   0.21372212   0.54340153 
    2490    -289195.7     1499.546   0.14533841   0.14245928   0.18516637   0.47296406   0.17755099   0.15209574   0.21401324   0.54365996 
    2500   -289177.74         1500   0.14517036   0.14242911   0.18532649   0.47292596   0.17791392   0.15181132   0.21417999   0.54390523 
    2510   -289159.53         1500   0.14498571   0.14233183   0.18537323   0.47269077   0.17833639   0.15156805   0.21421079   0.54411523 
    2520   -289141.16         1500   0.14477521   0.14217583   0.18548477   0.47243582   0.17877812   0.15138181   0.21411393   0.54427386 
    2530   -289126.41         1500   0.14453105     0.141972   0.18554695      0.47205   0.17919008   0.15125012   0.21389974   0.54433993 
    2540   -289105.49         1500   0.14425154   0.14173148   0.18559681   0.47157982   0.17954471   0.15114509   0.21356466   0.54425446 
    2550    -289078.8         1500   0.14394445   0.14146122   0.18566818   0.47107385   0.17980831   0.15104285   0.21311999   0.54397116 
    2560   -289045.52         1500   0.14361823   0.14117149   0.18562276   0.47041247   0.17994178   0.15092184   0.21259678   0.54346041 
    2570   -289018.28         1500   0.14326801   0.14088041   0.18570644   0.46985486   0.17992335   0.15077848    0.2120275   0.54272933 
    2580   -288988.72         1500   0.14288113   0.14059965   0.18556774   0.46904853   0.17973177    0.1506234   0.21145189   0.54180706 
    2590   -288962.02         1500   0.14244978   0.14033101   0.18566599   0.46844678   0.17934703   0.15048081   0.21092586   0.54075371 
    2600   -288943.59         1500   0.14197327   0.14007927   0.18543108   0.46748362   0.17877292   0.15033262   0.21049795    0.5396035 
    2610   -288936.71    1499.1554   0.14145828   0.13984987   0.18554655   0.46685471   0.17801238   0.15014733    0.2102024   0.53836212 
    2620      -288944    1500.1175   0.14092141   0.13964167   0.18529179   0.46585486    0.1770788   0.14992635   0.21007342   0.53707858 
    2630   -288953.94         1500   0.14035734   0.13945492   0.18543584    0.4652481   0.17600194   0.14971151   0.21012787   0.53584131 
    2640   -288941.01         1500   0.13977484   0.13928977   0.18580299    0.4648676   0.17481931   0.14951961   0.21034139   0.53468032 
    2650   -288925.15         1500    0.1391827   0.13914527   0.18597099   0.46429896   0.17355854    0.1493537   0.21071465   0.53362688 
    2660   -288920.68    1499.3853   0.13859009   0.13901624   0.18675925   0.46436557   0.17223906   0.14922745   0.21125866   0.53272516 
    2670   -288921.08     1499.405   0.13800726   0.13889624   0.18747058   0.46437409   0.17087885   0.14912454   0.21197982   0.53198321 
    2680   -288922.94    1499.6169   0.13743979   0.13878167   0.18762585   0.46384731   0.16950025   0.14902968   0.21286654   0.53139648 
    2690    -288930.9    1500.6009   0.13688983   0.13866958   0.18820714   0.46376654   0.16812697    0.1489462   0.21390633   0.53097951 
    2700    -288946.5         1500   0.13635469   0.13855133   0.18835985   0.46326586   0.16678087    0.1488908    0.2150892   0.53076086 
    2710   -288955.79         1500   0.13583778   0.13841413   0.18884199   0.46309389   0.16548154   0.14885613    0.2163802   0.53071787 
    2720   -288965.54         1500   0.13534739   0.13825272   0.18898879   0.46258891   0.16424534   0.14881763   0.21772698   0.53078995 
    2730   -288973.61         1500   0.13487083   0.13806969    0.1893806   0.46232112   0.16309547   0.14878479   0.21909409   0.53097435 
    2740   -288979.86     1500.783   0.13440525   0.13787569   0.18956578   0.46184672   0.16205597   0.14876421   0.22047674   0.53129693 
    2750   -288986.12         1500   0.13395497   0.13769115   0.18974655   0.46139267   0.16115131   0.14877043   0.22186596   0.53178771 
    2760    -288985.3     1499.898   0.13351473   0.13751732   0.18991923   0.46095127    0.1604208   0.14886307    0.2232395   0.53252337 
    2770   -288977.58         1500   0.13310576   0.13734489   0.18979329   0.46024394   0.15989497   0.14905359   0.22460291   0.53355147 
    2780   -288961.83         1500   0.13274528   0.13716893   0.18992962   0.45984384   0.15959426   0.14935358   0.22595057    0.5348984 
    2790   -288945.04         1500   0.13243769   0.13698303   0.18961877   0.45903948   0.15953665   0.14977828   0.22726007   0.53657501 
    2800   -288930.77         1500   0.13218445   0.13678404   0.18973954   0.45870803   0.15972475   0.15034294   0.22851336   0.53858105 
    2810   -288932.58      1500.21   0.13198708   0.13657301   0.19064517   0.45920526   0.16014236   0.15105529   0.22969887   0.54089652 
    2820    -288939.5         1500   0.13185259   0.13634682   0.19075871   0.45895811   0.16076225   0.15190693   0.23081232    0.5434815 
    2830   -288959.21         1500   0.13178877   0.13609431   0.19151689   0.45939997   0.16154961   0.15286263   0.23185849   0.54627073 
    2840   -288991.28         1500   0.13179237   0.13581398   0.19160718   0.45921352   0.16246244   0.15389697   0.23283195   0.54919136 
    2850   -289023.25         1500   0.13185783   0.13551194   0.19209089   0.45946065   0.16345977   0.15499416   0.23371609   0.55217003 
    2860   -289047.11         1500   0.13198294   0.13520234   0.19213318   0.45931846   0.16450632   0.15614566   0.23451314   0.55516511 
    2870    -289058.4         1500   0.13216426   0.13489654   0.19234237   0.45940318   0.16556937   0.15733903   0.23521657   0.55812497 
    2880    -289059.9    1500.1599   0.13239767   0.13459801   0.19233064   0.45932631   0.16660568   0.15854738   0.23582883   0.56098189 
    2890   -289057.08    1499.8234   0.13267915   0.13430616   0.19220184   0.45918715   0.16757032     0.159721   0.23636914   0.56366045 
    2900   -289055.41    1499.6536   0.13299754   0.13402372    0.1920891   0.45911036   0.16843633   0.16082612    0.2368577   0.56612015 
    2910   -289051.25    1499.1025   0.13333758   0.13376069   0.19154664   0.45864491   0.16918993     0.161841   0.23730213   0.56833306 
    2920   -289025.99         1500   0.13369266   0.13353432   0.19134342   0.45857039   0.16981921   0.16276293   0.23769118   0.57027332 
    2930   -288999.62         1500   0.13406952   0.13335793   0.19037618   0.45780363   0.17031444     0.163601   0.23800401   0.57191946 
    2940   -288979.88         1500    0.1344489   0.13322398   0.19010974   0.45778261    0.1706813   0.16433881    0.2382247   0.57324481 
    2950   -288976.53    1499.5921   0.13480718   0.13312176   0.18982509   0.45775404   0.17092027   0.16497113   0.23835138   0.57424279 
    2960   -288979.15    1499.9241    0.1351325   0.13304442   0.18857142   0.45674834   0.17103192   0.16550771   0.23840398   0.57494361 
    2970   -289000.04         1500   0.13542546    0.1329908   0.18825464   0.45667091   0.17102308   0.16595485   0.23841493   0.57539285 
    2980   -289046.79         1500   0.13567938   0.13296488   0.18718438   0.45582864   0.17089905    0.1663058   0.23840143   0.57560628 
    2990   -289093.94         1500   0.13588392    0.1329752   0.18685678   0.45571589   0.17065946   0.16655083   0.23836667   0.57557696 
    3000   -289140.72         1500   0.13603818   0.13302723   0.18640651   0.45547192   0.17029944   0.16669731   0.23830595    0.5753027 
    3010    -289173.4         1500    0.1361507   0.13312703   0.18607131   0.45534904   0.16982628   0.16674309   0.23822367   0.57479304 
    3020   -289193.21         1500   0.13622813   0.13328143   0.18604958   0.45555914    0.1692581   0.16669014   0.23813692   0.57408516 
    3030   -289194.45    1500.1395   0.13626945   0.13347771   0.18575679   0.45550394   0.16860556   0.16652633   0.23807377   0.57320566 
    3040    -289200.4    1500.8764   0.13627565   0.13370402   0.18565989   0.45563956   0.16788131   0.16626567   0.23804585   0.57219284 
    3050    -289200.2    1500.8221   0.13624809   0.13395356   0.18541581   0.45561747   0.16710214   0.16593165   0.23803832    0.5710721 
    3060   -289192.77    1499.8187   0.13618762   0.13422014   0.18524655   0.45565431    0.1662835   0.16553868   0.23805738   0.56987956 
    3070   -289186.84    1499.0687   0.13609612   0.13449826   0.18506491   0.45565929   0.16543088   0.16509183   0.23811981   0.56864251 
    3080   -289180.44         1500   0.13597524    0.1347825   0.18531314   0.45607089   0.16453825   0.16459515    0.2382331    0.5673665 
    3090   -289162.07         1500   0.13583538    0.1350788   0.18522519   0.45613937   0.16359104   0.16407259   0.23841497   0.56607859 
    3100    -289134.1         1500   0.13569092   0.13539941   0.18517515   0.45626548   0.16257551   0.16356031   0.23867459   0.56481041 
    3110    -289094.6         1500   0.13553912   0.13574293   0.18557722   0.45685926   0.16149864   0.16306818   0.23899323   0.56356005 
    3120   -289054.11         1500   0.13537774   0.13611304   0.18554442   0.45703521   0.16035241   0.16260489   0.23934737   0.56230466 
    3130   -289016.75         1500   0.13520418   0.13650725   0.18577417    0.4574856   0.15913617     0.162169    0.2397305   0.56103566 
    3140   -288983.77         1500   0.13501482   0.13692311    0.1857723   0.45771023   0.15785851    0.1617716     0.240145   0.55977512 
    3150   -288963.84         1500   0.13480547   0.13736334   0.18579423   0.45796304   0.15654218   0.16142561   0.24058903   0.55855682 
    3160   -288966.46     1500.339   0.13457494   0.13783077   0.18584009    0.4582458   0.15522115    0.1611409   0.24106615    0.5574282 
    3170   -288981.24         1500   0.13431724   0.13832605   0.18557904   0.45822233   0.15392695   0.16093371   0.24158061   0.55644127 
    3180      -289015         1500   0.13402838   0.13884901   0.18569491   0.45857231   0.15269046   0.16081538   0.24211286    0.5556187 
    3190   -289058.88         1500   0.13371311   0.13939607    0.1854974   0.45860658    0.1515362   0.16078882   0.24265128    0.5549763 
    3200   -289098.16         1500   0.13337811   0.13996241   0.18569908    0.4590396   0.15048569   0.16087333   0.24317001   0.55452903 
    3210   -289137.81         1500   0.13302706   0.14054523   0.18685514   0.46042743   0.14955643   0.16110107   0.24365331   0.55431082 
    3220   -289182.05         1500   0.13265443   0.14114358   0.18713982   0.46093784   0.14876357   0.16148839   0.24409541   0.55434738 
    3230   -289212.21         1500   0.13224449   0.14175402   0.18745874   0.46145726   0.14808496   0.16200838   0.24448676    0.5545801 
    3240   -289210.07    1499.7199   0.13179171   0.14237355   0.18853782   0.46270308   0.14751646   0.16263212   0.24482729   0.55497587 
    3250   -289197.25         1500   0.13128704   0.14299981   0.18888458   0.46317143   0.14707175   0.16330556   0.24509624   0.55547355 
    3260   -289177.01         1500   0.13073148   0.14363409   0.18977083   0.46413639   0.14674628   0.16398476   0.24525123   0.55598228 
    3270   -289148.89         1500   0.13012905   0.14428062   0.19008736   0.46449703   0.14651403   0.16463123   0.24528484   0.55643011 
    3280   -289107.25         1500   0.12948504   0.14494169   0.19081053   0.46523726    0.1463483   0.16519009   0.24521784   0.55675623 
    3290   -289059.49         1500   0.12880649   0.14561088   0.19109887   0.46551624   0.14623363   0.16561001   0.24507054   0.55691418 
    3300   -289015.51         1500   0.12809136   0.14628724   0.19169559   0.46607419   0.14616728   0.16586787   0.24484908   0.55688423 
    3310    -288988.4         1500    0.1273381   0.14696908     0.191965   0.46627218    0.1461731   0.16598549   0.24457352    0.5567321 
    3320   -288980.17         1500   0.12654846   0.14764926   0.19255129     0.466749   0.14627216   0.16599432   0.24428662   0.55655311 
    3330   -288982.46    1500.3301   0.12572923   0.14832062   0.19284109   0.46689094   0.14648774   0.16592711   0.24403025   0.55644509 
    3340    -288982.2    1500.3565   0.12489954   0.14897771   0.19314661   0.46702386    0.1468468   0.16584045   0.24383298   0.55652024 
    3350   -288978.42    1499.8671   0.12407923   0.14961419   0.19380937   0.46750279   0.14736572   0.16578647   0.24370417   0.55685636 
    3360   -288972.83     1499.138   0.12327674   0.15023285   0.19415163   0.46766122   0.14806276   0.16579223    0.2436388    0.5574938 
    3370    -288956.8         1500   0.12250042     0.150834    0.1948392   0.46817363   0.14892632   0.16588117   0.24362297   0.55843046 
    3380   -288935.64         1500   0.12175585   0.15140185   0.19518608   0.46834378   0.14994259   0.16605549   0.24363316   0.55963124 
    3390   -288913.63         1500   0.12105388   0.15193444   0.19576549   0.46875382   0.15108955   0.16630066   0.24363076   0.56102097 
    3400    -288880.4         1500    0.1203988     0.152436   0.19605106   0.46888586   0.15234372   0.16661055   0.24359935   0.56255362 
    3410   -288823.58         1500   0.11978274   0.15291436   0.19657489   0.46927198   0.15368312   0.16697824   0.24353106   0.56419243 
    3420   -288772.46         1500   0.11919936   0.15337516   0.19714482   0.46971933    0.1550786   0.16740906   0.24341621   0.56590387 
    3430   -288723.67         1500   0.11865054   0.15382043    0.1973432   0.46981416    0.1564879   0.16791267   0.24323186   0.56763243 
    3440   -288678.78         1500   0.11814062    0.1542434    0.1979223   0.47030632   0.15787671   0.16848354   0.24296139   0.56932164 
    3450   -288636.31         1500   0.11767649   0.15462683   0.19802291   0.47032623    0.1592206   0.16909822   0.24259142   0.57091025 
    3460   -288604.16         1500   0.11726329   0.15495981   0.19851762   0.47074071   0.16049699   0.16974777   0.24210249   0.57234725 
    3470   -288590.81         1500   0.11690749   0.15524098   0.19851041   0.47065887   0.16168447   0.17043963   0.24147925   0.57360336 
    3480   -288584.12    1499.1216   0.11662188   0.15547509   0.19890942   0.47100639   0.16276086   0.17118297   0.24071702   0.57466085 
    3490   -288585.94    1499.3426   0.11640944   0.15565407   0.19883029    0.4708938   0.16373744   0.17197252   0.23985907   0.57556903 
    3500   -288605.44         1500   0.11626916   0.15576919   0.19911174   0.47115009   0.16460928   0.17280571   0.23897313   0.57638811 
    3510   -288632.19         1500    0.1161984   0.15582353   0.19900708   0.47102901   0.16535512   0.17370442   0.23814493   0.57720447 
    3520   -288660.67         1500   0.11619415   0.15581782   0.19909536   0.47110733   0.16598714   0.17467283   0.23743379   0.57809377 
    3530   -288710.79         1500   0.11625467   0.15574775   0.19895171   0.47095413    0.1665261   0.17571162   0.23687795   0.57911567 
    3540   -288778.87         1500   0.11637533   0.15561466   0.19865715   0.47064714    0.1669935   0.17683889   0.23649698   0.58032937 
    3550   -288848.85         1500   0.11655047   0.15541877   0.19845947   0.47042871   0.16742491   0.17804666   0.23630178   0.58177335 
    3560   -288915.71         1500   0.11677145   0.15515397   0.19777385   0.46969926   0.16784092   0.17930836   0.23627115   0.58342042 
    3570   -288994.08         1500   0.11702734   0.15481226   0.19749228   0.46933187   0.16823973    0.1806189   0.23639108    0.5852497 
    3580   -289072.69         1500   0.11731235   0.15439607   0.19648081   0.46818923    0.1686601   0.18198121   0.23662936   0.58727067 
    3590   -289134.66         1500   0.11761745   0.15391758   0.19613203   0.46766706   0.16912755   0.18338864   0.23694591   0.58946209 
    3600   -289180.73         1500   0.11792575   0.15339587   0.19488095   0.46620258   0.16963383   0.18484253   0.23733463   0.59181099 
    3610   -289200.02         1500   0.11823134   0.15284017   0.19452546   0.46559697   0.17018572   0.18634465   0.23779298   0.59432334 
    3620   -289199.04    1499.8705   0.11853767   0.15225184   0.19323843   0.46402794   0.17079062   0.18789267   0.23832121    0.5970045 
    3630    -289186.7         1500   0.11883463   0.15163117   0.19290794   0.46337374   0.17145839   0.18945564    0.2388998   0.59981382 
    3640   -289172.98         1500   0.11911644   0.15098204   0.19263619   0.46273467   0.17219951   0.19100175   0.23951014    0.6027114 
    3650   -289145.69         1500   0.11938193   0.15031497   0.19232341   0.46202031   0.17301949   0.19248075   0.24013538   0.60563562 
    3660   -289102.21         1500   0.11962855   0.14964222   0.19192494   0.46119571   0.17390993   0.19385414   0.24076511   0.60852918 
    3670    -289062.9         1500    0.1198526   0.14897474    0.1916395   0.46046685   0.17485854   0.19510526   0.24138156   0.61134536 
    3680   -289021.42         1500   0.12004927    0.1483214   0.19112305   0.45949372   0.17584703   0.19621837   0.24196053   0.61402593 
    3690   -288982.79         1500   0.12021539   0.14769486   0.19088315    0.4587934   0.17685847   0.19719215   0.24247767   0.61652829 
    3700   -288952.64         1500   0.12034789   0.14708759      0.19027   0.45770548    0.1778971   0.19801671   0.24291134   0.61882515 
    3710   -288935.44         1500   0.12044751   0.14649089   0.19011465   0.45705306   0.17896877   0.19867259   0.24323284    0.6208742 
    3720   -288937.74    1500.2308   0.12051785   0.14590719   0.18945639   0.45588142   0.18007534   0.19913367   0.24342106   0.62263007 
    3730   -288947.69         1500   0.12056459   0.14533867   0.18938022   0.45528348   0.18120674   0.19938363   0.24346069   0.62405107 
    3740   -288975.52         1500   0.12059682   0.14478315    0.1887775   0.45415748   0.18234842   0.19942726   0.24335419   0.62512986 
    3750   -289006.84         1500   0.12062559   0.14423321   0.18874976   0.45360855   0.18348334   0.19929717   0.24313494   0.62591545 
    3760    -289033.9         1500   0.12066257   0.14367934   0.18875016   0.45309207   0.18461357   0.19903468   0.24281065   0.62645889 
    3770   -289046.84         1500   0.12071496   0.14313137   0.18842482   0.45227115   0.18575528   0.19870359   0.24235201   0.62681088 
    3780   -289057.95         1500   0.12078696   0.14258672   0.18844709   0.45182077   0.18692779   0.19834971    0.2417351    0.6270126 
    3790   -289079.71         1500   0.12088198   0.14203706   0.18803838   0.45095742   0.18814576   0.19800027   0.24094016   0.62708619 
    3800   -289118.33         1500   0.12099994   0.14147886   0.18750816   0.44998697    0.1894271   0.19767543   0.23995433   0.62705685 
    3810   -289150.25         1500   0.12114055    0.1409157   0.18745169   0.44950794   0.19077533   0.19740255   0.23877756   0.62695543 
    3820   -289182.69         1500   0.12130407   0.14035036   0.18687556   0.44852998   0.19217753   0.19720617   0.23741856   0.62680226 
    3830    -289214.2         1500   0.12148565   0.13979019   0.18678362   0.44805947   0.19360879   0.19709163   0.23589563   0.62659605 
    3840   -289242.77         1500   0.12167982   0.13923931   0.18664431   0.44756344   0.19504079   0.19707025   0.23423745   0.62634848 
    3850   -289254.03         1500   0.12188878    0.1386953   0.18655006   0.44713414   0.19644203   0.19716111   0.23246707    0.6260702 
    3860   -289247.46     1499.146   0.12211884   0.13815292   0.18625015   0.44652191   0.19776774   0.19735984   0.23060171   0.62572929 
    3870    -289227.4         1500   0.12237862   0.13760544   0.18592637   0.44591043   0.19898584   0.19765025   0.22868471    0.6253208 
    3880   -289202.31         1500   0.12267278   0.13704287   0.18583814   0.44555379   0.20006791   0.19802126   0.22675469   0.62484386 
    3890   -289189.03         1500    0.1229981   0.13647729   0.18572958   0.44520497   0.20099152   0.19846796   0.22483175   0.62429123 
    3900   -289199.68         1500   0.12335405   0.13591405   0.18660328   0.44587139   0.20174671   0.19897614   0.22294734   0.62367018 
    3910      -289216         1500   0.12374209   0.13535875   0.18735451   0.44645534    0.2023368   0.19952356   0.22113653   0.62299689 
    3920   -289219.15    1500.4717   0.12416353   0.13482051   0.18709108   0.44607512   0.20277688   0.20008392   0.21944471   0.62230551 
    3930   -289222.68    1500.9489   0.12462285   0.13430746   0.18777561   0.44670592   0.20309846   0.20061722   0.21793412   0.62164981 
    3940    -289239.2         1500   0.12512142   0.13382373   0.18742713   0.44637227   0.20333751   0.20109422   0.21664385   0.62107559 
    3950   -289262.41         1500   0.12564815   0.13336593   0.18812236   0.44713644    0.2035378   0.20151834   0.21559799   0.62065413 
    3960   -289286.43         1500   0.12619301   0.13292908   0.18770774   0.44682983   0.20374737     0.201907   0.21480967   0.62046404 
    3970    -289300.3         1500   0.12675218    0.1325094   0.18727449   0.44653607   0.20401124   0.20223995   0.21428296   0.62053415 
    3980   -289287.47         1500   0.12732229   0.13211316   0.18808932   0.44752478   0.20437486   0.20249265   0.21401484   0.62088235 
    3990    -289280.4     1499.076   0.12789701   0.13175776   0.18764448   0.44729925   0.20488375   0.20265517   0.21400137   0.62154029 
    4000   -289263.31         1500   0.12846278   0.13144765   0.18834541   0.44825584   0.20555228   0.20271742   0.21423329   0.62250299 
    4010   -289249.39         1500    0.1290053   0.13118028   0.18790198   0.44808756   0.20638296   0.20266803   0.21468307   0.62373406 
    4020   -289234.62         1500   0.12952593   0.13095445   0.18827501   0.44875539   0.20736409   0.20248222   0.21531221   0.62515853 
    4030   -289205.77         1500   0.13003174   0.13076742    0.1878275   0.44862666   0.20845936   0.20216695   0.21606027   0.62668658 
    4040   -289169.12         1500   0.13051928   0.13062038   0.18736563   0.44850529   0.20962932   0.20174858   0.21687277   0.62825067 
    4050    -289139.5         1500   0.13099292   0.13052304   0.18719857   0.44871453   0.21082098   0.20125033   0.21771817   0.62978948 
    4060   -289119.48         1500    0.1314591   0.13047971   0.18669714   0.44863595   0.21197358   0.20071551   0.21858808   0.63127716 
    4070   -289098.71         1500   0.13191907   0.13048399    0.1860594   0.44846246   0.21302364     0.200186    0.2195172   0.63272684 
    4080   -289078.41         1500   0.13237089    0.1305305   0.18556883   0.44847023   0.21391477   0.19969569   0.22053587   0.63414634 
    4090   -289051.84         1500   0.13281743   0.13061208   0.18467477   0.44810428    0.2146012    0.1992702   0.22165066   0.63552206 
    4100   -289027.07         1500   0.13326723   0.13072021   0.18422946    0.4482169    0.2150366   0.19893955   0.22285127   0.63682742 
    4110   -289013.76         1500   0.13372738   0.13083834   0.18325942   0.44782515   0.21522289   0.19873589   0.22413444   0.63809323 
    4120   -289002.63         1500    0.1341979   0.13094956   0.18286585   0.44801331   0.21516866   0.19869522   0.22547836   0.63934224 
    4130   -288972.51         1500   0.13467702   0.13104186    0.1818994   0.44761829   0.21488476   0.19884836   0.22685723   0.64059035 
    4140   -288941.32         1500   0.13516797   0.13111585   0.18154009   0.44782391   0.21438892   0.19915183   0.22825485   0.64179561 
    4150    -288912.9         1500    0.1356678   0.13117734   0.18059395   0.44743909   0.21369986   0.19954495   0.22964479   0.64288961 
    4160   -288875.57         1500   0.13617375   0.13122618    0.1796023   0.44700222   0.21283014   0.20001647   0.23102766   0.64387427 
    4170   -288836.72         1500   0.13668939   0.13126217   0.17925675   0.44720831   0.21180502   0.20055133   0.23239785    0.6447542 
    4180   -288804.84         1500   0.13723135   0.13128616   0.17815655   0.44667407   0.21065526   0.20110425   0.23370479   0.64546429 
    4190   -288792.64         1500   0.13780376   0.13129602   0.17780944   0.44690922   0.20940499    0.2016389   0.23493773   0.64598162 
    4200   -288775.12         1500   0.13840684   0.13128941   0.17670094    0.4463972   0.20806823   0.20216495   0.23609236   0.64632554 
    4210   -288770.67    1499.4261   0.13903882   0.13126298   0.17641297   0.44671478    0.2066518   0.20269141   0.23715564   0.64649885 
    4220   -288770.84     1499.485   0.13969592   0.13121092   0.17562328   0.44653013   0.20517166   0.20320101   0.23811501   0.64648768 
    4230    -288775.7    1500.1447   0.14037371   0.13112608   0.17540801   0.44690781   0.20366211   0.20367954   0.23895175    0.6462934 
    4240   -288773.61    1499.9005   0.14106905   0.13100175   0.17545032   0.44752112   0.20217894   0.20410921   0.23964356    0.6459317 
    4250   -288773.61    1499.9239   0.14178184   0.13083436    0.1752499   0.44786609    0.2007617   0.20448003   0.24018926   0.64543099 
    4260   -288767.01    1499.1005    0.1425151   0.13062257   0.17542131   0.44855897   0.19946388   0.20478803   0.24058416   0.64483607 
    4270   -288752.88         1500   0.14326626   0.13036148   0.17521453   0.44884227   0.19833217    0.2050095   0.24083335   0.64417502 
    4280   -288731.27         1500    0.1440182   0.13005771   0.17500903   0.44908494   0.19738009   0.20514056   0.24098116   0.64350181 
    4290   -288718.38         1500    0.1447635   0.12972097   0.17526454   0.44974902   0.19661043   0.20521622   0.24105532   0.64288197 
    4300   -288710.92    1499.0703   0.14550066   0.12935388   0.17506648   0.44992102   0.19601181   0.20525674   0.24106508   0.64233363 
    4310   -288720.59    1500.3242   0.14623528   0.12895212   0.17538049   0.45056789   0.19558902   0.20525525    0.2410139   0.64185816 
    4320   -288747.39         1500   0.14696717   0.12851779    0.1752529   0.45073786   0.19531912   0.20520065     0.240917   0.64143677 
    4330   -288788.94         1500   0.14769756   0.12805505   0.17564788   0.45140049   0.19518244   0.20508858   0.24080417   0.64107519 
    4340   -288840.87         1500   0.14843402   0.12756665   0.17562219   0.45162286   0.19517142   0.20491005   0.24068676   0.64076823 
    4350   -288895.32         1500   0.14917491    0.1270598   0.17598999    0.4522247   0.19527123    0.2046636   0.24057668   0.64051151 
    4360   -288941.78         1500   0.14990383   0.12655199   0.17601222   0.45246804    0.1954564   0.20437025   0.24050293   0.64032957 
    4370   -288995.57         1500   0.15061979   0.12605308   0.17620582   0.45287868   0.19570874   0.20404647   0.24046809    0.6402233 
    4380   -289043.94         1500   0.15132818    0.1255639    0.1762471   0.45313918   0.19602341   0.20369716   0.24046048   0.64018105 
    4390   -289083.17         1500   0.15203209   0.12508351   0.17629921   0.45341481   0.19640288   0.20333946   0.24047899   0.64022134 
    4400   -289098.56         1500   0.15273045   0.12460022   0.17638885   0.45371951   0.19684649   0.20299115   0.24052919   0.64036683 
    4410   -289097.35    1499.8316     0.153419   0.12410806   0.17636529   0.45389235   0.19733214   0.20265599   0.24060011   0.64058824 
    4420   -289092.24    1499.1586    0.1541011   0.12360745   0.17652057   0.45422912   0.19782114   0.20232609   0.24065695   0.64080417 
    4430   -289099.65    1500.1067   0.15479115   0.12309855   0.17643942   0.45432912   0.19830127   0.20200929   0.24066704   0.64097761 
    4440   -289109.33         1500   0.15549118   0.12258665   0.17666079   0.45473862   0.19875943   0.20169462   0.24062969   0.64108374 
    4450   -289112.28    1500.4315    0.1562007   0.12207812   0.17692657   0.45520539   0.19918851   0.20134669   0.24054959   0.64108479 
    4460   -289115.69    1500.9002   0.15691444   0.12158375   0.17689871   0.45539689   0.19957913   0.20095295   0.24043442    0.6409665 
    4470   -289121.96         1500   0.15762168   0.12110703   0.17727562   0.45600433   0.19994329   0.20053593   0.24028983   0.64076905 
    4480   -289140.88         1500   0.15831287   0.12064427   0.17724436    0.4562015   0.20027283   0.20012115   0.24011655   0.64051053 
    4490   -289164.66         1500   0.15897799   0.12019362   0.17771736   0.45688896   0.20054755   0.19974774   0.23991726   0.64021256 
    4500   -289190.88         1500   0.15959739   0.11976071   0.17791731   0.45727541   0.20075611   0.19944746   0.23971113    0.6399147 
    4510   -289211.11         1500   0.16016936   0.11934621   0.17847341   0.45798898   0.20090909   0.19923276   0.23948573   0.63962757 
    4520   -289231.19         1500     0.160695   0.11894983   0.17983105   0.45947589   0.20105615   0.19910889   0.23923816    0.6394032 
    4530   -289264.59         1500   0.16117969   0.11857041   0.18046873   0.46021883   0.20123784   0.19906788   0.23896497    0.6392707 
    4540   -289287.45         1500   0.16163176    0.1182084   0.18172695   0.46156711   0.20147872   0.19907386   0.23865752    0.6392101 
    4550   -289299.03         1500   0.16205523   0.11787228   0.18240435   0.46233187   0.20178613   0.19907827   0.23829835   0.63916275 
    4560   -289299.93    1500.1623    0.1624621   0.11756499   0.18347248   0.46349956   0.20218317   0.19905818   0.23787766   0.63911901 
    4570   -289303.14    1500.6223   0.16286235   0.11728563     0.184172   0.46431998   0.20269752   0.19901028    0.2373944    0.6391022 
    4580   -289300.42    1500.2942   0.16325023   0.11703305   0.18503968   0.46532296   0.20333867   0.19892926   0.23684723   0.63911515 
    4590   -289278.38         1500   0.16361739   0.11680025   0.18576409   0.46618173   0.20410538   0.19878437   0.23621117   0.63910093 
    4600   -289236.91         1500   0.16395981   0.11658117   0.18650763   0.46704862   0.20498927   0.19856464   0.23546513   0.63901905 
    4610   -289196.05         1500    0.1642692   0.11637764   0.18729055   0.46793738   0.20597463   0.19827135   0.23462194   0.63886793 
    4620   -289170.73         1500   0.16453678   0.11619317   0.18806104   0.46879099   0.20704219   0.19789637   0.23369441   0.63863297 
    4630   -289159.72         1500   0.16476863   0.11602738   0.18891311   0.46970912   0.20818093   0.19743546   0.23268383   0.63830023 
    4640   -289139.38         1500   0.16497539   0.11587967   0.18982141   0.47067648   0.20937864   0.19688159    0.2315966   0.63785682 
    4650   -289098.22         1500   0.16516362   0.11575288   0.19071993   0.47163643    0.2106173   0.19622444   0.23045085    0.6372926 
    4660   -289055.28         1500   0.16533243   0.11565236   0.19199946   0.47298425   0.21186725   0.19544173   0.22927558   0.63658456 
    4670   -289021.67         1500   0.16548506   0.11558194   0.19289664   0.47396363   0.21307886   0.19450365   0.22810339   0.63568591 
    4680    -288991.5         1500   0.16562833   0.11554544   0.19419231   0.47536608   0.21422277   0.19338697   0.22695683   0.63456657 
    4690   -288972.94         1500   0.16576665   0.11554388   0.19507777    0.4763883   0.21527065   0.19208308   0.22585045   0.63320419 
    4700   -288964.11         1500   0.16590029   0.11557963   0.19629514   0.47777506   0.21619374   0.19063638   0.22480597    0.6316361 
    4710   -288978.62         1500    0.1660324   0.11565031   0.19713137   0.47881409   0.21697425   0.18912411   0.22384863   0.62994699 
    4720   -289010.81         1500   0.16617511   0.11574701   0.19815393   0.48007605   0.21759884   0.18762172   0.22299077   0.62821133 
    4730   -289045.29         1500   0.16633491   0.11585963   0.19891618   0.48111073   0.21804868   0.18617599   0.22223418   0.62645885 
    4740   -289061.73         1500   0.16651155   0.11598735     0.199829   0.48232789    0.2183298    0.1848093   0.22158122   0.62472032 
    4750   -289081.99         1500   0.16670224   0.11613554   0.20048916   0.48332694   0.21845826   0.18353715   0.22104614   0.62304156 
    4760   -289108.16         1500   0.16690269   0.11631069   0.20130539   0.48451877   0.21843789   0.18237287   0.22065132   0.62146208 
    4770   -289131.64         1500   0.16710883   0.11652604   0.20185307   0.48548793   0.21826445     0.181335   0.22041972   0.62001917 
    4780   -289154.54         1500   0.16731656   0.11679754   0.20243491     0.486549   0.21795081   0.18042835   0.22035932   0.61873848 
    4790   -289180.55         1500   0.16751745   0.11713087   0.20285215   0.48750046   0.21753155   0.17966093   0.22046533   0.61765781 
    4800   -289202.32         1500    0.1677014   0.11752369   0.20309817   0.48832326   0.21705093   0.17902867   0.22073075   0.61681034 
    4810   -289230.28         1500    0.1678553   0.11796866   0.20342899   0.48925295   0.21654105   0.17851875   0.22114492   0.61620472 
    4820   -289258.92         1500   0.16796603   0.11844752    0.2034795   0.48989305   0.21602854   0.17812946   0.22168297   0.61584097 
    4830   -289277.33         1500   0.16803151   0.11894685   0.20379188   0.49077024   0.21554622   0.17784739   0.22231571   0.61570933 
    4840   -289292.58         1500   0.16805436    0.1194608   0.20385242   0.49136758   0.21512087   0.17763537   0.22302369   0.61577992 
    4850   -289308.64         1500   0.16803655   0.11998688   0.20414332   0.49216675   0.21475965   0.17746915   0.22379403   0.61602283 
    4860   -289297.25         1500   0.16798356   0.12052771   0.20433097   0.49284225   0.21446525    0.1773497   0.22459865    0.6164136 
    4870    -289254.7         1500   0.16790122   0.12109435   0.20457176   0.49356733   0.21423673   0.17729742   0.22542782   0.61696197 
    4880   -289204.35         1500   0.16779431   0.12169888   0.20479037   0.49428357   0.21404639    0.1773279   0.22628079   0.61765508 
    4890   -289141.66         1500    0.1676683   0.12234277   0.20493146   0.49494253   0.21385939   0.17742373    0.2271467   0.61842982 
    4900   -289066.13         1500   0.16752445   0.12301741   0.20516107   0.49570292   0.21364149   0.17756959   0.22801976   0.61923083 
    4910   -288985.41         1500   0.16736268   0.12371261   0.20523217   0.49630746   0.21336094   0.17776508    0.2288938   0.62001982 
    4920   -288918.18         1500   0.16718148   0.12441801   0.20556444   0.49716393   0.21299901   0.17803276   0.22973145   0.62076323 
    4930   -288876.48         1500   0.16698468    0.1251221   0.20578385   0.49789063   0.21254739   0.17840384   0.23047057   0.62142181 
    4940   -288851.85         1500   0.16677561   0.12580925   0.20585774    0.4984426    0.2119954   0.17891471   0.23106253   0.62197264 
    4950   -288846.51    1499.3188   0.16656491   0.12647315   0.20603015   0.49906821   0.21134547   0.17956491   0.23147356   0.62238395 
    4960   -288851.03    1499.9084    0.1663672   0.12710976   0.20616546   0.49964242   0.21059981   0.18030668   0.23168256   0.62258905 
    4970   -288853.97    1500.3396   0.16619177   0.12771611   0.20590276   0.49981064   0.20974213   0.18111472   0.23168297   0.62253983 
    4980   -288858.26    1500.9319   0.16604728   0.12829133   0.20601149    0.5003501   0.20875749   0.18198689   0.23149289   0.62223728 
    4990   -288865.89         1500   0.16593596   0.12883632   0.20551524   0.50028753   0.20763569   0.18291566   0.23116012   0.62171147 
    5000   -288877.47         1500   0.16585811   0.12935139   0.20559886   0.50080836   0.20636896   0.18388596    0.2307285   0.62098343 
    5010   -288871.58    1499.2113   0.16581437   0.12983309   0.20516941   0.50081687   0.20497516   0.18486046   0.23022637     0.620062 
    5020   -288873.89    1499.5152   0.16580374   0.13027821   0.20526914   0.50135109   0.20350802   0.18579833   0.22967132   0.61897767 
    5030   -288885.01    1500.9411   0.16583019   0.13068215   0.20522585   0.50173819   0.20203809   0.18668998   0.22907198   0.61780005 
    5040    -288895.3         1500   0.16589306    0.1310441   0.20531081   0.50224796   0.20062458   0.18755845   0.22843775   0.61662078 
    5050   -288904.91         1500   0.16599075   0.13136142   0.20565597   0.50300815   0.19931703   0.18839347   0.22779065   0.61550116 
    5060   -288901.95    1499.5713   0.16612188   0.13163863    0.2057106   0.50347111   0.19815314   0.18916512   0.22715945   0.61447772 
    5070   -288880.64         1500   0.16628354   0.13188472   0.20604147   0.50420973   0.19716225   0.18984678   0.22658634   0.61359537 
    5080   -288854.23         1500   0.16647411   0.13210945    0.2060569   0.50464046   0.19636483   0.19041015   0.22610728   0.61288226 
    5090   -288833.47         1500   0.16669458   0.13231775    0.2061787   0.50519103   0.19577746    0.1908361    0.2257466   0.61236016 
    5100   -288803.98         1500   0.16695313   0.13251118   0.20612794   0.50559225   0.19543362   0.19110789   0.22551984   0.61206135 
    5110   -288781.06         1500   0.16725639   0.13269606   0.20601052   0.50596297   0.19535453    0.1912216   0.22544323   0.61201937 
    5120   -288776.01    1499.3195   0.16760017   0.13287621   0.20588271   0.50635909   0.19552138   0.19121409   0.22552978   0.61226525 
    5130   -288773.73         1500   0.16797759   0.13304744   0.20561156   0.50663659   0.19589836   0.19113968   0.22575901   0.61279705 
    5140   -288774.88    1500.1435   0.16838109   0.13320768    0.2054458   0.50703457   0.19644698   0.19103318   0.22609967   0.61357982 
    5150    -288775.4    1500.1711   0.16879751   0.13335922   0.20506109   0.50721782   0.19713153   0.19093317   0.22652806   0.61459276 
    5160   -288768.64    1499.3041   0.16921923   0.13350143   0.20488205   0.50760271   0.19792626   0.19085071   0.22702428   0.61580125 
    5170   -288766.56    1499.0338    0.1696418   0.13363224   0.20430343   0.50757748   0.19881309   0.19077595   0.22756789   0.61715693 
    5180   -288761.44         1500   0.17005853   0.13375629   0.20411282   0.50792765   0.19976756    0.1906984   0.22813234   0.61859829 
    5190   -288741.55         1500   0.17046515   0.13387703   0.20336124   0.50770341   0.20076537   0.19061291    0.2286876   0.62006587 
    5200    -288716.6         1500   0.17086054    0.1339924   0.20318613   0.50803907   0.20180161   0.19052771   0.22920168     0.621531 
    5210   -288696.72         1500   0.17124231   0.13410219   0.20226132   0.50760582   0.20288289    0.1904738   0.22963885   0.62299554 
    5220    -288686.2         1500   0.17160136   0.13420593   0.20207401    0.5078813   0.20400164   0.19048151   0.22997829   0.62446143 
    5230   -288681.39    1499.3678   0.17192342   0.13430494   0.20127923   0.50750759   0.20517011   0.19057263   0.23020786   0.62595059 
    5240   -288681.26    1499.3302   0.17219119   0.13440402   0.20111348    0.5077087   0.20638064   0.19076934   0.23033173   0.62748171 
    5250   -288686.76    1500.0391   0.17239601   0.13450771   0.20050263   0.50740635   0.20761132   0.19111716   0.23038377   0.62911226 
    5260   -288700.43         1500   0.17253631   0.13461833    0.2003688   0.50752345   0.20885211   0.19164193   0.23040357   0.63089762 
    5270   -288729.66         1500   0.17261777   0.13473242   0.19985404   0.50720422   0.21010733   0.19233147   0.23041212   0.63285092 
    5280   -288767.28         1500   0.17264474   0.13484987   0.19972251   0.50721712   0.21137293   0.19317631   0.23042023   0.63496946 
    5290   -288795.14         1500   0.17261515   0.13497247   0.20014939   0.50773701   0.21263672   0.19417129   0.23042624   0.63723424 
    5300   -288820.41         1500   0.17252628   0.13509767   0.20004541   0.50766935   0.21388919   0.19529604   0.23042022   0.63960545 
    5310   -288839.89         1500    0.1723804    0.1352236   0.20041735   0.50802134   0.21511881   0.19650776   0.23039869   0.64202525 
    5320    -288859.9         1500   0.17217909   0.13535325   0.20037445    0.5079068   0.21631265   0.19776465   0.23036387   0.64444117 
    5330   -288874.31         1500   0.17192421   0.13548539   0.20064274   0.50805235   0.21745416   0.19902559   0.23031704   0.64679679 
    5340   -288877.26    1500.4048   0.17161959   0.13561271   0.20072105   0.50795335   0.21851878   0.20024699   0.23027643   0.64904219 
    5350   -288865.37         1500    0.1712725   0.13573488   0.20107395   0.50808133   0.21949026   0.20141923   0.23025384   0.65116333 
    5360   -288868.68    1500.4415   0.17089225   0.13585791   0.20227973   0.50902989   0.22036367   0.20259355   0.23025296   0.65321019 
    5370   -288895.39         1500   0.17048301   0.13598387   0.20254594   0.50901282   0.22112006   0.20382108   0.23028125   0.65522239 
    5380   -288936.16         1500   0.17004952   0.13611263   0.20382581   0.50998796   0.22174403   0.20510931   0.23033545   0.65718878 
    5390   -288968.99         1500   0.16960089   0.13624677   0.20419919   0.51004685   0.22222424   0.20645032    0.2303965   0.65907106 
    5400   -288993.08         1500   0.16915045   0.13638639   0.20556608   0.51110291   0.22255994   0.20782119    0.2304395   0.66082063 
    5410   -289006.59         1500   0.16870956   0.13652368   0.20602523   0.51125847   0.22274762   0.20917896   0.23043921   0.66236579 
    5420   -289014.41         1500   0.16828781   0.13664037   0.20724585   0.51217403   0.22277187   0.21049706   0.23037489   0.66364382 
    5430   -289009.51    1499.3614   0.16788721   0.13672312   0.20782054   0.51243086   0.22264956   0.21176139   0.23024092   0.66465187 
    5440   -289007.31    1499.0648   0.16750745   0.13677157   0.20896284   0.51324186   0.22241568   0.21295681   0.23004474   0.66541723 
    5450   -289000.94         1500   0.16714689   0.13678981   0.20998583   0.51392253   0.22209641   0.21404392   0.22979832   0.66593865 
    5460   -288974.96         1500   0.16680344   0.13677797   0.21072073   0.51430214   0.22171821   0.21496773   0.22950295   0.66618889 
    5470   -288932.94         1500    0.1664754   0.13673621   0.21168797   0.51489958   0.22130274   0.21570914   0.22916496   0.66617684 
[...]
  248670   -290945.09         1500    7.2109655    7.0528002    7.8947034    22.158469    7.3530906    8.4803185    8.9609786    24.794388 
  248680   -290964.78         1500    7.2126473    7.0557199    7.8993224     22.16769    7.3586666    8.4815522    8.9767327    24.816952 
  248690    -290976.3         1500    7.2141902    7.0589187    7.9041062    22.177215    7.3642767    8.4830713    8.9930066    24.840355 
  248700   -290985.72         1500    7.2156555    7.0623542    7.9089758    22.186986    7.3698142    8.4849229    9.0095262    24.864263 
  248710    -290998.5         1500    7.2170995    7.0659638    7.9137793    22.196843    7.3751157    8.4870761    9.0260814    24.888273 
  248720   -291006.79         1500    7.2185219    7.0696868    7.9189989    22.207208    7.3801133    8.4894613    9.0424333    24.912008 
  248730   -291012.46    1500.6669    7.2199192    7.0734976    7.9238518    22.217269    7.3847442    8.4920479    9.0583994    24.935192 
  248740   -291016.65         1500    7.2212887    7.0773927    7.9294758    22.228157    7.3889525    8.4948056    9.0738423      24.9576 
  248750   -291014.91    1499.7751    7.2226043    7.0813794     7.934475    22.238459    7.3927397    8.4977219    9.0886978    24.979159 
  248760   -291003.72         1500    7.2238309    7.0854589    7.9404797     22.24977    7.3961001    8.5007909    9.1027316    24.999623 
  248770    -290990.2         1500    7.2249108    7.0896417    7.9466117    22.261164    7.3988906    8.5039943    9.1156666    25.018551 
  248780   -290965.77         1500    7.2258025    7.0939206    7.9519028    22.271626    7.4009712    8.5072988    9.1274145    25.035685 
  248790   -290944.07         1500     7.226516    7.0982515    7.9582729     22.28304    7.4022251    8.5106593    9.1379588    25.050843 
  248800   -290924.53         1500     7.226971    7.1025539    7.9637379    22.293263    7.4025325    8.5140667    9.1471702    25.063769 
  248810   -290905.87         1500    7.2271146    7.1067477    7.9701877     22.30405    7.4018392    8.5175391    9.1549141    25.074293 
  248820   -290888.26         1500    7.2269804    7.1107799     7.975934    22.313694    7.4001356    8.5210868    9.1610681     25.08229 
  248830    -290873.7         1500    7.2266146    7.1145981    7.9822821    22.323495    7.3973274    8.5247382    9.1654023    25.087468 
  248840   -290859.72         1500    7.2260535    7.1181782    7.9884183     22.33265    7.3934535    8.5285883    9.1676368    25.089679 
  248850   -290849.45         1500    7.2252748    7.1214961    7.9946781    22.341449    7.3886976    8.5327541    9.1675643    25.089016 
  248860   -290845.72    1499.5201    7.2242711    7.1245572    8.0013054    22.350134    7.3832353    8.5372719    9.1652641    25.085771 
  248870   -290852.37    1500.3957    7.2230625    7.1273425    8.0075391    22.357944    7.3772454    8.5421263    9.1607747    25.080146 
  248880    -290862.8         1500    7.2216651    7.1298212    8.0144706    22.365957    7.3709543    8.5472867    9.1542849    25.072526 
  248890   -290869.28    1500.8272    7.2201591    7.1319637    8.0207799    22.372903    7.3645902    8.5527542    9.1461508    25.063495 
  248900   -290864.16    1500.1832    7.2186518    7.1337086    8.0271311    22.379491    7.3581751    8.5585698    9.1366983    25.053443 
  248910   -290853.68         1500    7.2172635    7.1350121    8.0340831    22.386359     7.351669    8.5647631    9.1262595    25.042692 
  248920   -290838.04         1500    7.2159868    7.1358508    8.0403137    22.392151    7.3449383    8.5710878    9.1150379    25.031064 
  248930   -290819.67         1500    7.2147726    7.1362538    8.0467018    22.397728    7.3379079     8.577314    9.1032901    25.018512 
  248940   -290805.83         1500    7.2135834    7.1362802     8.052582    22.402446    7.3306323    8.5833008    9.0913545    25.005288 
  248950   -290798.12         1500    7.2124545    7.1359456    8.0581093    22.406509    7.3232907    8.5888632    9.0796921    24.991846 
  248960   -290783.17         1500    7.2114442    7.1352309    8.0636386    22.410314    7.3161476    8.5939329    9.0685693     24.97865 
  248970   -290757.95         1500    7.2105866    7.1341607    8.0683255    22.413073    7.3094901    8.5985672    9.0579569    24.966014 
  248980   -290734.12         1500    7.2098959    7.1327661    8.0736835    22.416346    7.3035597    8.6027343    9.0479054    24.954199 
  248990   -290717.95         1500     7.209376    7.1310791    8.0789654    22.419421    7.2985143    8.6062465    9.0386328    24.943394 
  249000   -290709.99         1500    7.2090319    7.1291274    8.0827754    22.420935    7.2945234     8.608949    9.0302599    24.933732 
  249010    -290702.6         1500    7.2088711    7.1269424    8.0877959    22.423609    7.2917907    8.6108092    9.0227958    24.925396 
  249020   -290697.97    1499.3441    7.2089005    7.1245631    8.0907541    22.424218    7.2904446    8.6118061    9.0163618    24.918612 
  249030    -290696.7    1499.1206    7.2091225    7.1219997    8.0953949    22.426517    7.2905267    8.6119157    9.0112688    24.913711 
  249040   -290698.67    1499.3831     7.209554    7.1192305    8.0977325    22.426517    7.2921044    8.6112069    9.0076016    24.910913 
  249050   -290703.37    1500.0009    7.2101951     7.116254    8.0997222    22.426171    7.2951479    8.6096909    9.0052829    24.910122 
  249060   -290706.37     1500.381    7.2109794    7.1130853    8.1036432    22.427708    7.2995389    8.6073693    9.0042371    24.911145 
  249070   -290700.36    1499.6489    7.2117817    7.1097152    8.1049094    22.426406    7.3051713     8.604268    9.0043634    24.913803 
  249080   -290690.69         1500    7.2124897    7.1061062    8.1081421    22.426738    7.3119361    8.6003833    9.0053954    24.917715 
  249090   -290687.26    1499.6106    7.2130417    7.1022589    8.1086785    22.423979    7.3197298    8.5957915    9.0072221    24.922743 
  249100   -290683.34    1499.1631    7.2133867    7.0981609    8.1112956    22.422843    7.3284772    8.5905885    9.0097993    24.928865 
  249110   -290673.19         1500    7.2134572    7.0937972    8.1113949    22.418649    7.3380835    8.5847935    9.0131154    24.935992 
  249120   -290663.19         1500    7.2132455    7.0891321    8.1134072    22.415785    7.3483874     8.578375    9.0172641    24.944027 
  249130   -290660.41    1499.6299    7.2127838    7.0841918    8.1133007    22.410276    7.3592273    8.5713709     9.022347    24.952945 
  249140   -290668.22    1500.6535    7.2120429    7.0790515     8.114748    22.405842    7.3704884     8.563788    9.0282884    24.962565 
  249150   -290687.29         1500    7.2109885    7.0737382    8.1145866    22.399313    7.3819805    8.5556165    9.0349082    24.972505 
  249160   -290715.56         1500    7.2096444    7.0682752    8.1154506     22.39337    7.3934792    8.5469068    9.0420594    24.982445 
  249170   -290743.28         1500    7.2080681    7.0627038     8.115088     22.38586    7.4047974     8.537745    9.0496119    24.992154 
  249180    -290765.4         1500    7.2062785    7.0571002    8.1154096    22.378788    7.4158102    8.5282569    9.0573981    25.001465 
  249190   -290785.68         1500    7.2042585    7.0515412    8.1155065    22.371306     7.426385    8.5185917    9.0652676    25.010244 
  249200   -290804.01         1500    7.2020118     7.046078    8.1148379    22.362928     7.436397    8.5089181    9.0730932    25.018408 
  249210   -290818.86         1500    7.1995935     7.040754    8.1144956    22.354843    7.4457113    8.4994139    9.0807225    25.025848 
  249220   -290833.53         1500    7.1970643    7.0355956    8.1137197     22.34638    7.4541563    8.4902187    9.0880728    25.032448 
  249230   -290852.48         1500    7.1944541    7.0306232    8.1129304    22.338008    7.4615666    8.4814699    9.0951078    25.038144 
  249240   -290873.33         1500    7.1917797    7.0258448     8.111949    22.329574    7.4678267    8.4733117     9.101764    25.042902 
  249250   -290896.61         1500    7.1890692    7.0212593    8.1106374    22.320966    7.4729363    8.4659444    9.1079975    25.046878 
  249260   -290926.02         1500    7.1863468    7.0168669     8.109331    22.312545    7.4768649    8.4595933    9.1137489    25.050207 
  249270      -290959         1500    7.1836256    7.0127036    8.1075275    22.303857    7.4794333    8.4543879    9.1189598    25.052781 
  249280   -290990.31         1500    7.1809086    7.0088153    8.1059829    22.295707    7.4805316    8.4504111    9.1235734    25.054516 
  249290   -291018.33         1500    7.1782039    7.0051981    8.1037863    22.287188    7.4802082    8.4477235    9.1275857    25.055517 
  249300   -291041.07         1500    7.1754963    7.0018162     8.101946    22.279259    7.4786499    8.4463489    9.1310568    25.056056 
  249310   -291064.34         1500    7.1727625    6.9986791    8.0993349    22.270777    7.4761177    8.4462032    9.1340008    25.056322 
  249320    -291084.9         1500     7.170039     6.995798    8.0971027     22.26294    7.4726972    8.4470979    9.1364258    25.056221 
  249330   -291107.95         1500    7.1673572     6.993156    8.0941386    22.254652    7.4683988    8.4488305    9.1383633    25.055593 
  249340   -291140.24         1500     7.164748    6.9907705    8.0917338    22.247252     7.463397    8.4512733    9.1398535    25.054524 
  249350   -291181.33         1500    7.1622561    6.9887167    8.0886588    22.239632     7.457945    8.4543773    9.1409937    25.053316 
  249360   -291223.23         1500    7.1599221    6.9869847    8.0856113    22.232518    7.4523078    8.4580379    9.1418142     25.05216 
  249370   -291253.95         1500     7.157738    6.9855688    8.0835015    22.226808    7.4467487    8.4621384    9.1424086    25.051296 
  249380   -291278.16         1500    7.1556709    6.9844972    8.0806998    22.220868    7.4414648    8.4665477    9.1428778     25.05089 
  249390   -291297.43         1500    7.1537039     6.983779    8.0788535    22.216336    7.4365755    8.4711279    9.1432442    25.050948 
  249400   -291309.45         1500    7.1518464    6.9834129     8.076457    22.211716      7.43221    8.4757725    9.1435529    25.051535 
  249410   -291318.64         1500    7.1501284     6.983411    8.0749955    22.208535    7.4284999    8.4804575    9.1438799    25.052837 
  249420   -291317.27    1499.8434    7.1485784     6.983794    8.0730663    22.205439    7.4254686    8.4851382    9.1441823    25.054789 
  249430   -291310.23         1500    7.1471994    6.9845904    8.0720669    22.203857    7.4230512    8.4896958    9.1444291    25.057176 
  249440   -291301.86         1500    7.1459792    6.9857916    8.0706719    22.202443    7.4212467     8.494026    9.1446762    25.059949 
  249450   -291291.23         1500    7.1449006    6.9873342    8.0700978    22.202333    7.4201758    8.4980292    9.1450247     25.06323 
  249460   -291276.86         1500    7.1439592    6.9891333    8.0690527    22.202145     7.419849    8.5016664    9.1455441    25.067059 
  249470   -291259.29         1500    7.1431566    6.9911458    8.0687278     22.20303    7.4202141    8.5049395    9.1463006    25.071454 
  249480   -291239.94         1500    7.1425032    6.9933796    8.0679002    22.203783    7.4211627    8.5078429    9.1473388    25.076344 
  249490   -291223.85         1500    7.1420081     6.995864    8.0678763    22.205748    7.4226468    8.5103954    9.1486855    25.081728 
  249500   -291212.27         1500    7.1416656    6.9986125    8.0672845    22.207563     7.424714    8.5127005    9.1503314    25.087746 
  249510   -291203.93         1500    7.1414825    7.0016326    8.0675687    22.210684    7.4273941    8.5148371    9.1522392     25.09447 
  249520   -291189.91         1500    7.1414658    7.0049301    8.0671441     22.21354     7.430645    8.5168936    9.1543834    25.101922 
  249530   -291174.49         1500    7.1415963    7.0084905    8.0676731     22.21776    7.4343649    8.5189643    9.1567878    25.110117 
  249540    -291157.6         1500    7.1418463    7.0122413    8.0673935    22.221481    7.4384636    8.5211198     9.159428    25.119011 
  249550      -291141         1500    7.1422221    7.0160649    8.0681127      22.2264    7.4428452    8.5234723    9.1622568    25.128574 
  249560   -291123.54         1500    7.1427213    7.0199029    8.0679755      22.2306     7.447336    8.5260489    9.1653216    25.138706 
  249570   -291106.27         1500    7.1433213    7.0237324    8.0689269    22.235981    7.4517895    8.5288078    9.1687055    25.149303 
  249580   -291085.81         1500     7.144007    7.0274933    8.0690459    22.240546    7.4561706    8.5317432    9.1724522    25.160366 
  249590   -291060.98         1500    7.1448097    7.0311322    8.0703656    22.246308    7.4603947    8.5349133    9.1764913    25.171799 
  249600   -291042.04         1500    7.1457511     7.034641    8.0708096    22.251202    7.4643339    8.5384161    9.1806969    25.183447 
  249610   -291018.62         1500     7.146832    7.0380143    8.0725592    22.257405    7.4678834    8.5422905    9.1849485    25.195122 
  249620   -290989.13         1500    7.1480293    7.0412788    8.0746222     22.26393    7.4709155    8.5466044     9.189098    25.206618 
  249630   -290954.34         1500    7.1493439    7.0444439     8.075765    22.269553    7.4733979    8.5514473    9.1929769    25.217822 
  249640   -290920.64         1500     7.150753    7.0475201    8.0784357    22.276709    7.4752705    8.5567994    9.1965388    25.228609 
  249650   -290891.04         1500    7.1522353    7.0505307    8.0802059    22.282972    7.4764511    8.5627356    9.1997174    25.238904 
  249660   -290860.11         1500    7.1537455    7.0534662    8.0822652    22.289477    7.4768716     8.569361    9.2025092    25.248742 
  249670   -290833.02         1500    7.1552985    7.0562881    8.0857407    22.297327    7.4763824    8.5765614    9.2049623    25.257906 
  249680   -290815.33         1500    7.1569043    7.0590662    8.0882671    22.304238    7.4749303    8.5843051     9.207158    25.266393 
  249690   -290816.53    1500.1054    7.1585564    7.0618507    8.0919086    22.312316    7.4725141    8.5924978    9.2091093    25.274121 
  249700    -290837.4         1500    7.1602254    7.0646195    8.0946849     22.31953    7.4692075    8.6010298    9.2108181    25.281055 
  249710   -290873.67         1500    7.1618949    7.0673176    8.0982041    22.327417    7.4651282    8.6097961    9.2123316    25.287256 
  249720   -290910.07         1500    7.1635341    7.0699817    8.1011898    22.334706    7.4604231    8.6186891    9.2136776     25.29279 
  249730   -290933.78         1500    7.1651176     7.072679    8.1044958    22.342292    7.4551549    8.6277096    9.2149915    25.297856 
  249740   -290951.18         1500    7.1666361    7.0754393    8.1076611    22.349737    7.4493115    8.6368992    9.2164898    25.302701 
  249750   -290961.79         1500    7.1680909    7.0782429    8.1106755    22.357009     7.443013    8.6461236    9.2181156    25.307252 
  249760   -290972.08         1500    7.1694329    7.0810419    8.1139916    22.364466     7.436388    8.6553241     9.219835    25.311547 
  249770   -290985.02         1500    7.1706054    7.0838085    8.1168261     22.37124    7.4295472    8.6643987    9.2216597    25.315606 
  249780   -291000.23         1500    7.1716031    7.0865155    8.1203938    22.378512    7.4227208    8.6733148    9.2235429    25.319579 
  249790   -291023.06         1500    7.1724455    7.0892069    8.1240627    22.385715    7.4160142    8.6819078    9.2254159    25.323338 
  249800   -291048.24         1500    7.1731231    7.0919239    8.1268562    22.391903    7.4095138    8.6899836    9.2272226     25.32672 
  249810   -291073.34         1500    7.1735845    7.0946804    8.1307429    22.399008     7.403284    8.6973434    9.2288298    25.329457 
  249820   -291092.64         1500    7.1737585    7.0974926    8.1333787     22.40463    7.3973987    8.7038579    9.2300591    25.331316 
  249830    -291112.7         1500    7.1736827    7.1003613    8.1372613    22.411305    7.3920409      8.70944    9.2306297    25.332111 
  249840   -291142.33         1500    7.1734119    7.1033006    8.1394525    22.416165    7.3872838    8.7140231    9.2303467    25.331654 
  249850   -291170.19         1500    7.1729428    7.1063126    8.1429821    22.422238    7.3830943    8.7175961    9.2292215    25.329912 
  249860   -291200.51         1500    7.1722711    7.1093398    8.1445397    22.426151    7.3795133    8.7202361    9.2272955    25.327045 
  249870   -291235.28         1500    7.1713998    7.1123193    8.1474703    22.431189      7.37656    8.7220508    9.2247232    25.323334 
  249880    -291261.5         1500    7.1703551    7.1152674    8.1482849    22.433907     7.374217     8.723103    9.2216088    25.318929 
  249890   -291287.21         1500    7.1692282    7.1182331    8.1504538    22.437915    7.3725028    8.7234073    9.2179586    25.313869 
  249900   -291303.24         1500    7.1680586    7.1212246    8.1506686    22.439952    7.3715337    8.7230947     9.213913    25.308541 
  249910    -291314.4         1500     7.166854    7.1242359    8.1521229    22.443213    7.3714642    8.7223504    9.2094881    25.303303 
  249920   -291321.14    1500.9472    7.1656408     7.127242    8.1517492    22.444632    7.3724097    8.7212862    9.2047211    25.298417 
  249930   -291315.45    1500.2241    7.1644329    7.1302434    8.1524625    22.447139    7.3744312    8.7199506    9.1996315    25.294013 
  249940   -291294.27         1500    7.1632154     7.133322     8.151495    22.448032    7.3774875    8.7183886    9.1943043     25.29018 
  249950   -291254.73         1500    7.1619462    7.1364874    8.1513764     22.44981    7.3814886    8.7165272    9.1886779    25.286694 
  249960   -291215.65         1500    7.1605616    7.1396405    8.1496993    22.449901    7.3862979    8.7142644    9.1826457    25.283208 
  249970   -291177.96         1500    7.1590343    7.1427212    8.1487997    22.450555    7.3919311    8.7116532    9.1762937    25.279878 
  249980   -291139.98         1500    7.1573617    7.1456895    8.1478033    22.450855    7.3984316     8.708781    9.1697779     25.27699 
  249990   -291112.57         1500    7.1555347    7.1485257    8.1462683    22.450329    7.4058029    8.7056816    9.1632456     25.27473 
  250000   -291098.68         1500    7.1535388    7.1512251    8.1447878    22.449552    7.4139854    8.7024084    9.1568384    25.273232 
Loop time of 11099.1 on 32 procs for 250000 steps with 2577 atoms

Performance: 0.389 ns/day, 61.662 hours/ns, 22.524 timesteps/s
100.0% CPU use with 32 MPI tasks x no OpenMP threads

MPI task timing breakdown:
Section |  min time  |  avg time  |  max time  |%varavg| %total
---------------------------------------------------------------
Pair    | 4635.6     | 7013.7     | 9581       |1860.6 | 63.19
Neigh   | 63.669     | 101.13     | 138.05     | 285.5 |  0.91
Comm    | 239.59     | 2434.3     | 4451       |2519.5 | 21.93
Output  | 44.678     | 44.719     | 44.767     |   0.3 |  0.40
Modify  | 1090.7     | 1174.4     | 1338.9     | 264.3 | 10.58
Other   |            | 330.9      |            |       |  2.98

Nlocal:    80.5312 ave 117 max 55 min
Histogram: 4 2 5 7 3 5 0 3 1 2
Nghost:    1811.25 ave 2274 max 1256 min
Histogram: 7 3 5 1 0 0 0 0 3 13
Neighs:    24700.8 ave 42645 max 12990 min
Histogram: 3 5 5 7 4 1 1 2 2 2

Total # of neighbors = 790426
Ave neighs/atom = 306.723
Neighbor list builds = 12197
Dangerous builds = 0














Please see the log.cite file for references relevant to this simulation

Total wall time: 3:04:59
