LAMMPS (7 Aug 2019)
Created orthogonal box = (0 0 0) to (18.5604 42.4 40)
  2 by 4 by 4 MPI processor grid
Reading data file ...
ERROR on proc 0: Cannot open file coolannealedboundary.data (../read_data.cpp:2029)
Last command: read_data	coolannealedboundary.data	add append
srun: Job step aborted: Waiting up to 32 seconds for job step to finish.
--------------------------------------------------------------------------
MPI_ABORT was invoked on rank 0 in communicator MPI_COMM_WORLD
with errorcode 1.

NOTE: invoking MPI_ABORT causes Open MPI to kill all MPI processes.
You may or may not see output from other processes, depending on
exactly when Open MPI kills them.
--------------------------------------------------------------------------
slurmstepd: error: *** STEP 29857.0 ON host4 CANCELLED AT 2019-10-08T22:59:09 ***
srun: error: host4: task 0: Exited with exit code 1
srun: Terminating job step 29857.0
srun: error: host4: tasks 1-31: Killed
