LAMMPS (7 Aug 2019)
Created orthogonal box = (0 0 0) to (18.5604 42.4 40)
  2 by 4 by 4 MPI processor grid
Reading data file ...
  orthogonal box = (0 0 -0.171776) to (18.5604 42.4 41.6292)
  2 by 4 by 4 MPI processor grid
  reading atoms ...
  2577 atoms
  reading velocities ...
  2577 velocities
  read_data CPU = 0.0116475 secs
719 atoms in group boundary
1149 atoms in group Fe
1428 atoms in group O
312 atoms in group Feb
407 atoms in group Ob
Reading potential file ffield.reax.Fe_O_C_H with DATE: 2011-02-18
Neighbor list info ...
  update every 1 steps, delay 5 steps, check yes
  max neighbors/atom: 2000, page size: 100000
  master list distance cutoff = 10.3
  ghost atom cutoff = 10.3
  binsize = 5.15, bins = 4 9 9
  2 neighbor lists, perpetual/occasional/extra = 2 0 0
  (1) pair reax/c, perpetual
      attributes: half, newton off, ghost
      pair build: half/bin/newtoff/ghost
      stencil: half/ghost/bin/3d/newtoff
      bin: standard
  (2) fix qeq/reax, perpetual, copy from (1)
      attributes: half, newton off, ghost
      pair build: copy
      stencil: none
      bin: none
Setting up Verlet run ...
  Unit style    : real
  Current step  : 0
  Time step     : 0.2
Per MPI rank memory allocation (min/avg/max) = 36.41 | 45.46 | 53.73 Mbytes
Step PotEng c_T c_avesqdispFe1 c_avesqdispFe2 c_avesqdispFe3 c_avesqdispFe4 c_avesqdispO1 c_avesqdispO2 c_avesqdispO3 c_avesqdispO4 
       0   -294261.51         1200            0            0            0            0            0            0            0            0 
      10   -294235.59         1200 7.237587e-05 7.9444901e-05 7.5042064e-05 0.00022686283 0.00024583166 0.00024370299 0.00025622082 0.00074575547 
      20   -294164.57         1200 0.00028995228 0.00031909068 0.00030073389 0.00090977685 0.00097322041 0.0009709116 0.0010248717 0.0029690037 
      30   -294074.98         1200 0.00065338881 0.0007209501 0.00068903008  0.002063369 0.0021619655 0.0021728516 0.0022994619 0.0066342791 
      40   -293970.57         1200 0.0011630052 0.0012862283 0.0012194032 0.0036686368 0.0037850828 0.0038341916 0.0040638143  0.011683089 
      50   -293861.11         1200 0.0018187053 0.0020149676 0.0019006331 0.0057343059 0.0058101264   0.00593271 0.0062908077  0.018033644 
      60   -293749.87         1200 0.0026191314 0.0029058251 0.0027399285  0.008264885 0.0082018065 0.0084379968  0.008941989  0.025581792 
      70   -293641.08         1200 0.0035623608 0.0039556476 0.0037100082  0.011228017  0.010921223  0.011310053  0.011971982  0.034203257 
      80   -293524.46         1200 0.0046460136  0.005157622 0.0048130169  0.014616653  0.013923958  0.014502174  0.015331061  0.043757194 
      90   -293399.69         1200 0.0058672844  0.006503651 0.0060341397  0.018405075  0.017166202  0.017968053  0.018969073  0.054103328 
     100   -293268.01         1200  0.007222257 0.0079845901 0.0073825122  0.022589359  0.020610288  0.021663172  0.022833834  0.065107294 
     110   -293142.29         1200 0.0087062346 0.0095899055 0.0088237956  0.027119936  0.024221554  0.025538577  0.026872873  0.076633003 
     120   -293027.01         1200  0.010314034  0.011308533  0.010390253  0.032012821  0.027959913  0.029548684  0.031033823  0.088542421 
     130   -292930.38         1200  0.012040378  0.013128929  0.012044387  0.037213694  0.031783878  0.033650098   0.03527027   0.10070425 
     140   -292848.36         1200  0.013877266  0.015038403  0.013792438  0.042708107  0.035651566  0.037800687  0.039534599   0.11298685 
     150    -292783.1         1200  0.015814196  0.017026141  0.015617062    0.0484574  0.039523359  0.041962136  0.043781828   0.12526732 
     160   -292728.03         1200  0.017839078  0.019082549  0.017506605  0.054428232  0.043361522  0.046092874  0.047966328   0.13742072 
     170   -292664.15         1200  0.019939122  0.021197036  0.019452018  0.060588176  0.047133791  0.050152869  0.052045937    0.1493326 
     180   -292610.88         1200  0.022103002  0.023359654  0.021472688  0.066935343  0.050808188  0.054104858  0.055984801   0.16089785 
     190   -292559.91         1200  0.024314153  0.025559711  0.023499593  0.073373457  0.054349129  0.057908231   0.05974621   0.17200357 
     200   -292520.36         1200  0.026556316  0.027788955  0.025699831  0.080045101  0.057727327  0.061529094  0.063300313   0.18255673 
     210   -292484.78         1200  0.028816523  0.030037777  0.027774335  0.086628635  0.060922917   0.06494428  0.066614515   0.19248171 
     220   -292441.72         1200  0.031086117  0.032295578  0.029859897  0.093241592   0.06392539  0.068149814  0.069663782   0.20173899 
     230   -292418.71         1200  0.033356309  0.034552763  0.031945694  0.099854767  0.066724659  0.071136945  0.072442852   0.21030446 
     240   -292415.66    1199.6269  0.035614131  0.036799312   0.03404089   0.10645433  0.069306174  0.073882344  0.074938381    0.2181269 
     250   -292437.61         1200  0.037849576  0.039027729  0.036116619   0.11299392  0.071659025  0.076365008  0.077138886   0.22516292 
     260   -292473.05         1200  0.040055552   0.04122912     0.038204   0.11948867  0.073781738  0.078568374  0.079046689    0.2313968 
     270   -292502.65         1200  0.042225627  0.043393948   0.04028169   0.12590127  0.075677756  0.080481003  0.080667662   0.23682642 
     280    -292529.4         1200  0.044354943  0.045516677  0.042321937   0.13219356   0.07735394  0.082094309  0.082014705   0.24146295 
     290   -292554.37         1200  0.046436281  0.047591466  0.044381121   0.13840887  0.078825978  0.083405384  0.083102592   0.24533395 
     300   -292579.54         1200  0.048458386  0.049612079  0.046406438    0.1444769   0.08011297  0.084421538  0.083946442   0.24848095 
     310   -292605.14         1200  0.050410301  0.051573995  0.048438781   0.15042308  0.081226084   0.08515601  0.084552719   0.25093481 
     320   -292627.52         1200  0.052287662   0.05347709  0.050455007   0.15621976  0.082170536  0.085629399  0.084910492   0.25271043 
     330   -292649.43         1200  0.054087738  0.055321166  0.052436285   0.16184519  0.082959207  0.085869635  0.085013778   0.25384262 
     340   -292671.95         1200  0.055810125   0.05710593  0.054380174   0.16729623  0.083616942  0.085910599  0.084863983   0.25439152 
     350   -292682.92         1200  0.057459733  0.058835887   0.05630619   0.17260181  0.084161011  0.085781839  0.084477656   0.25442051 
     360    -292679.4    1199.5298  0.059040324  0.060515852  0.058164555   0.17772073  0.084609407  0.085516094  0.083885684   0.25401119 
     370   -292674.72         1200  0.060555256  0.062143806  0.060034292   0.18273335  0.084983728  0.085147192  0.083118485    0.2532494 
     380   -292663.16         1200  0.062007401  0.063710879  0.061809236   0.18752752   0.08530458  0.084706312  0.082217944   0.25222884 
     390   -292657.93    1199.2993  0.063397089  0.065208763  0.063814445    0.1924203  0.085586057  0.084226943   0.08122645   0.25103945 
     400   -292662.12    1199.8502  0.064722434   0.06663208  0.065501639   0.19685615  0.085828145  0.083750064  0.080167827   0.24974604 
     410   -292663.93    1200.0475  0.065980887  0.067979361  0.067507299   0.20146755  0.086022546   0.08331571  0.079069597   0.24840785 
     420   -292648.92         1200  0.067169313    0.0692517  0.069092109   0.20551312  0.086155515  0.082956639  0.077966791   0.24707895 
     430   -292636.47         1200  0.068286981  0.070455146  0.071052598   0.20979473  0.086217532  0.082688181  0.076897233   0.24580295 
     440   -292617.84         1200  0.069336634  0.071591194  0.072528298   0.21345613  0.086204477  0.082519151  0.075899608   0.24462324 
     450   -292595.99         1200   0.07032849  0.072655896  0.073938539   0.21692293  0.086122009  0.082453348   0.07501516   0.24359052 
     460   -292584.14         1200  0.071272089  0.073648019  0.075737223   0.22065733  0.085976942  0.082496169   0.07427661   0.24274972 
     470   -292573.43         1200  0.072172486  0.074569457  0.077015639   0.22375758  0.085774007  0.082647427  0.073701123   0.24212256 
     480   -292561.61         1200  0.073029787  0.075416547  0.078612139   0.22705847  0.085529441  0.082896433  0.073304674   0.24173055 
     490    -292553.4         1200  0.073850603  0.076188465  0.079740888   0.22977996  0.085261747   0.08322615  0.073098092   0.24158599 
     500    -292552.1     1199.813  0.074644197  0.076887355  0.081089538   0.23262109  0.084983822  0.083619318  0.073076395   0.24167953 
     510   -292552.91    1199.9163  0.075412545  0.077521385  0.082070249   0.23500418  0.084702113  0.084062572  0.073237951   0.24200264 
     520    -292549.6    1199.4899  0.076154466  0.078099862  0.083101794   0.23735612  0.084416669  0.084540291  0.073580184   0.24253714 
     530    -292548.9    1199.4354  0.076869475  0.078630945  0.083935659   0.23943608  0.084147252  0.085032686  0.074099772   0.24327971 
     540   -292547.71    1199.2771  0.077553851   0.07912221  0.084699384   0.24137545   0.08391126  0.085536176  0.074786269    0.2442337 
     550   -292538.61         1200  0.078203684   0.07958535    0.0853058   0.24309483   0.08371706  0.086045156  0.075617543   0.24537976 
     560   -292535.31    1199.5662  0.078816295  0.080031881   0.08592762    0.2447758  0.083576401  0.086554231   0.07656666   0.24669729 
     570   -292537.28    1199.8861  0.079391125  0.080473299  0.086927752   0.24679218  0.083508401   0.08705576  0.077604403   0.24816856 
     580   -292543.27    1200.6396  0.079932413  0.080914892  0.087397363   0.24824467   0.08353588  0.087540385  0.078709278   0.24978554 
     590      -292555         1200  0.080450482  0.081361757  0.088409583   0.25022182  0.083676575  0.088001304  0.079867441   0.25154532 
     600   -292578.33         1200  0.080954398  0.081819457  0.088730234   0.25150409  0.083940306  0.088437351  0.081060598   0.25343825 
     610    -292596.1         1200  0.081450565  0.082293916  0.089610555   0.25335504  0.084329882  0.088853943  0.082269728   0.25545355 
     620   -292607.47         1200  0.081943985  0.082788967  0.089775778   0.25450873  0.084844841  0.089259126   0.08348826   0.25759223 
     630   -292622.91         1200  0.082438511  0.083305669  0.090525959   0.25627014  0.085486031  0.089662429  0.084718046   0.25986651 
     640   -292640.56         1200  0.082936084  0.083843038  0.090529782    0.2573089   0.08625304  0.090068313  0.085964136   0.26228549 
     650   -292652.68         1200  0.083434267  0.084396396  0.090460028   0.25829069  0.087144526  0.090474802  0.087237578   0.26485691 
     660   -292665.69         1200  0.083931351   0.08495884  0.090979025   0.25986922  0.088153488  0.090888293  0.088543028   0.26758481 
     670   -292682.24         1200  0.084427593  0.085524039  0.090794393   0.26074602   0.08927233  0.091319434  0.089874649   0.27046641 
     680   -292689.94    1200.9792  0.084921368  0.086083262  0.091166878   0.26217151  0.090494849  0.091777324    0.0912237   0.27349587 
     690   -292685.49    1200.3863  0.085412721  0.086626295   0.09089245   0.26293147   0.09180784  0.092272415  0.092583886   0.27666414 
     700   -292668.57         1200  0.085901501  0.087147761  0.091086686   0.26413595  0.093180186  0.092811063  0.093942311   0.27993356 
     710   -292650.91         1200  0.086393353  0.087644023  0.090741858   0.26477923  0.094577295  0.093389975  0.095289361   0.28325663 
     720   -292629.55         1200   0.08689819  0.088109021  0.090748013   0.26575522  0.095973875  0.093993767  0.096605958    0.2865736 
     730   -292603.09         1200  0.087424899  0.088537159  0.090362199   0.26632426  0.097356346  0.094604099  0.097870698   0.28983114 
     740   -292577.76         1200  0.087979439  0.088934052  0.089969111    0.2668826  0.098703105  0.095209589   0.09906936   0.29298205 
     750    -292558.1         1200  0.088564145   0.08930857  0.090364258   0.26823697  0.099988599  0.095799286   0.10018704   0.29597493 
     760   -292537.94         1200  0.089176714  0.089664687  0.089953298    0.2687947   0.10120774  0.096365217   0.10121466   0.29878762 
     770   -292517.36         1200  0.089810179  0.090006808  0.090167675   0.26998466   0.10236966  0.096904864   0.10214727    0.3014218 
     780   -292503.85         1200  0.090456816  0.090337555  0.089752942   0.27054731    0.1034858  0.097413428   0.10298111   0.30388034 
     790   -292495.45         1200  0.091111429  0.090660341  0.089345541   0.27111731   0.10456132  0.097878851   0.10370597   0.30614614 
     800   -292479.36         1200  0.091772001  0.090979375  0.089268657   0.27202003   0.10559365  0.098293592    0.1043146   0.30820184 
     810   -292465.57         1200  0.092437518  0.091300588  0.088892875   0.27263098   0.10658284  0.098658279   0.10481277   0.31005389 
     820   -292463.29    1199.7099  0.093105655  0.091626601  0.088536305   0.27326856   0.10753274   0.09898147   0.10521068    0.3117249 
     830   -292471.39    1200.7465  0.093771152  0.091947392  0.088216549   0.27393509    0.1084505   0.09927497   0.10551102   0.31323649 
     840   -292473.94         1200  0.094430595  0.092252419  0.087627395   0.27431041   0.10933807  0.099553514   0.10571517   0.31460675 
     850    -292464.5         1200   0.09508287  0.092533514  0.087388286   0.27500467   0.11020606  0.099821881   0.10583999   0.31586793 
     860   -292455.55         1200  0.095729321  0.092787037  0.087048049   0.27556441   0.11107235   0.10007689   0.10588286    0.3170321 
     870   -292451.25    1199.4091  0.096365559  0.093016271  0.086907439   0.27628927   0.11194472   0.10030968   0.10583574   0.31809014 
     880   -292455.19    1199.8834  0.096983726   0.09323204  0.087182816   0.27739858   0.11282771   0.10050979   0.10568871    0.3190262 
     890   -292470.86         1200  0.097578615  0.093447644  0.087124667   0.27815093     0.113723   0.10067678   0.10543851   0.31983829 
     900   -292493.53         1200  0.098144934  0.093674681  0.087472746   0.27929236   0.11463173   0.10081032   0.10508951   0.32053156 
     910   -292516.72         1200  0.098676971  0.093919864  0.087465961    0.2800628   0.11555948   0.10090758   0.10464912   0.32111618 
     920   -292530.19         1200  0.099167458  0.094187541   0.08747908   0.28083408   0.11650313   0.10097418   0.10412164   0.32159894 
     930   -292520.19         1200  0.099610111   0.09448243   0.08786707   0.28195961   0.11744402     0.101026   0.10351825   0.32198827 
     940   -292497.08         1200   0.10000221  0.094807596  0.087888631   0.28269843   0.11835912   0.10108543   0.10285973   0.32230429 
     950   -292472.73         1200   0.10034624  0.095164348  0.088303789   0.28381438   0.11922268   0.10117677   0.10217092   0.32257036 
     960   -292465.48    1199.0786   0.10064558     0.095548  0.088316983   0.28451056    0.1200084    0.1013227   0.10147457   0.32280568 
     970   -292464.98    1199.0183   0.10090425  0.095948943  0.088912407    0.2857656   0.12069826   0.10153038   0.10078182   0.32301046 
     980   -292470.19    1199.7013   0.10113051  0.096359109  0.088933607   0.28642323   0.12128205   0.10180078   0.10008708   0.32316991 
     990   -292485.24         1200   0.10133319  0.096772821  0.089699808   0.28780582   0.12176985   0.10212067  0.099412472   0.32330299 
    1000   -292497.62         1200   0.10151809  0.097184753  0.089752719   0.28845556   0.12217948   0.10247675  0.098776207   0.32343244 
    1010   -292497.89    1200.0622   0.10169108  0.097590178  0.089825994   0.28910725   0.12252392   0.10286492  0.098190689   0.32357953 
    1020   -292495.16     1199.705   0.10185709  0.097985916  0.090609628   0.29045263   0.12281532   0.10328587  0.097659475   0.32376066 
    1030   -292486.06         1200   0.10201595  0.098374095  0.090701694   0.29109174   0.12305649   0.10374258  0.097177583   0.32397665 
    1040      -292474         1200   0.10217155  0.098758637  0.090803104   0.29173329    0.1232573   0.10423897  0.096737216   0.32423348 
    1050   -292462.46         1200   0.10232782  0.099143428  0.090957869   0.29242912   0.12343028      0.10477  0.096330454   0.32453074 
    1060   -292456.84     1199.288   0.10248732  0.099530027  0.091077708   0.29309505   0.12357556    0.1053244  0.095951877   0.32485184 
    1070   -292460.32    1199.7363   0.10265294  0.099917739  0.090558649   0.29312933   0.12369655   0.10588576  0.095600656   0.32518296 
    1080    -292455.4    1199.0921   0.10282663   0.10031232  0.090708333   0.29384729   0.12381284   0.10643556  0.095272713   0.32552111 
    1090   -292448.13         1200   0.10300886    0.1007137   0.08999737   0.29371993   0.12393405   0.10695762  0.094958801   0.32585047 
    1100   -292442.56    1199.2452   0.10320092   0.10111742  0.090195525   0.29451386   0.12406033   0.10743662  0.094659922   0.32615687 
    1110   -292430.07         1200   0.10340607   0.10152224  0.090417776   0.29534609   0.12418859   0.10786683   0.09438719   0.32644261 
    1120   -292420.02         1200   0.10362574   0.10192812  0.089861907   0.29541577   0.12432071   0.10824934  0.094144179   0.32671423 
    1130   -292401.81         1200   0.10386147   0.10233107  0.090154361    0.2963469   0.12445808   0.10858308  0.093920387   0.32696155 
    1140   -292381.25         1200   0.10411061   0.10273204  0.089716346     0.296559   0.12458699   0.10886844  0.093707752   0.32716318 
    1150   -292362.36         1200   0.10436809   0.10313224  0.090067249   0.29756758   0.12468711   0.10910848  0.093512902   0.32730849 
    1160   -292342.74         1200    0.1046307   0.10352368  0.089808836   0.29796322    0.1247324   0.10931656  0.093340765   0.32738973 
    1170   -292322.26         1200   0.10489301   0.10389634  0.090219947    0.2990093   0.12469523    0.1095108  0.093197492   0.32740352 
    1180   -292304.28         1200   0.10515018   0.10424001  0.090101659   0.29949185   0.12455852   0.10970244  0.093097102   0.32735806 
    1190   -292295.07         1200   0.10539903   0.10455312  0.090560247    0.3005124   0.12432037   0.10989353  0.093056752   0.32727066 
    1200   -292308.32         1200   0.10563793   0.10484192  0.091036882   0.30151674   0.12397858   0.11008295   0.09309548   0.32715701 
    1210   -292338.11         1200   0.10586888   0.10511234  0.090976355   0.30195757   0.12353176   0.11026367  0.093232408   0.32702783 
    1220   -292367.98         1200   0.10609574   0.10536912   0.09147941   0.30294427   0.12300043   0.11043643   0.09348417   0.32692103 
    1230   -292400.73         1200   0.10632009   0.10561492  0.091915739   0.30385075   0.12241066   0.11060056  0.093864548   0.32687578 
    1240   -292432.17         1200    0.1065429   0.10585027  0.092423317   0.30481649   0.12179362   0.11074789  0.094387901   0.32692941 
    1250   -292457.08         1200   0.10676719   0.10607625  0.092926615   0.30577005   0.12117969   0.11086511  0.095066704   0.32711151 
    1260   -292490.78         1200    0.1069951   0.10630376  0.093609293   0.30690814   0.12058104   0.11094844  0.095902011   0.32743149 
    1270   -292533.51         1200   0.10722771   0.10654054  0.094101099   0.30786934    0.1200024   0.11100782  0.096896401   0.32790662 
    1280   -292589.84         1200   0.10746452   0.10678988  0.094604117   0.30885851   0.11944369   0.11105494  0.098055065    0.3285537 
    1290   -292629.28         1200   0.10770524    0.1070475  0.095080996   0.30983374   0.11890982   0.11110327  0.099372873   0.32938597 
    1300    -292651.2         1200   0.10795028    0.1073102  0.095457201   0.31071768   0.11841025   0.11117193   0.10083839   0.33042057 
    1310   -292676.51         1200     0.108198   0.10757237  0.095908068   0.31167844   0.11794839   0.11128146   0.10243197   0.33166182 
    1320   -292702.27         1200   0.10844493   0.10782008  0.096204485   0.31246949   0.11752537   0.11144464   0.10413197   0.33310198 
    1330   -292723.73         1200   0.10868876   0.10804496  0.096639895   0.31337361   0.11714539   0.11166941   0.10591034   0.33472514 
    1340   -292741.53         1200   0.10892889   0.10825148  0.097085417   0.31426579   0.11680123   0.11196327   0.10773926   0.33650376 
    1350   -292756.81         1200    0.1091625   0.10844844   0.09765344   0.31526437   0.11649589   0.11232837   0.10959741   0.33842168 
    1360   -292779.29         1200   0.10938275   0.10864133  0.098115328   0.31613941    0.1162263   0.11276259    0.1114671   0.34045598 
    1370   -292797.08         1200    0.1095845   0.10883274  0.098841015   0.31725825   0.11599719   0.11325345   0.11333105   0.34258168 
    1380   -292817.87         1200     0.109765   0.10902362  0.099306368   0.31809499    0.1158158   0.11378654   0.11515869   0.34476103 
    1390   -292830.14         1200   0.10992229   0.10921086   0.10001884   0.31915199   0.11569639   0.11434864    0.1169079   0.34695293 
    1400   -292845.89         1200   0.11005784   0.10938989   0.10046769   0.31991542   0.11566093   0.11492813   0.11853475   0.34912381 
    1410    -292860.7         1200     0.110179   0.10955968   0.10089774   0.32063643   0.11573627   0.11549388   0.12001557   0.35124571 
    1420   -292872.44         1200    0.1102932   0.10972131   0.10158138   0.32159588   0.11593193   0.11601832   0.12132773   0.35327798 
    1430   -292865.47    1199.1262   0.11040677   0.10987819    0.1019786   0.32226356   0.11624047   0.11649095    0.1224472   0.35517862 
    1440   -292851.52         1200   0.11052744   0.11003532   0.10246841   0.32303118   0.11665704   0.11689897   0.12336885   0.35692486 
    1450   -292853.21    1200.2368   0.11066024   0.11020717   0.10285249   0.32371989   0.11717822   0.11722784   0.12410533   0.35851139 
    1460   -292859.86         1200   0.11080941   0.11040366   0.10317434   0.32438741   0.11779679   0.11747842   0.12467926   0.35995447 
    1470   -292846.73         1200   0.11098108   0.11062483   0.10358259    0.3251885   0.11851163   0.11766052   0.12512671   0.36129886 
    1480   -292839.97    1199.1353     0.111174   0.11086637   0.10400858   0.32604895   0.11931088    0.1177899   0.12548572    0.3625865 
    1490   -292830.17         1200   0.11138157   0.11112669   0.10424502   0.32675327    0.1201722   0.11789766   0.12578656   0.36385641 
    1500    -292814.7         1200   0.11160032   0.11139969   0.10471226   0.32771226   0.12108211   0.11801391   0.12605757    0.3651536 
    1510   -292775.69         1200   0.11182647   0.11167042   0.10486266   0.32835955   0.12201876   0.11815657   0.12632275   0.36649809 
    1520   -292742.74         1200   0.11205586    0.1119273   0.10536272   0.32934589   0.12295787   0.11832594   0.12659632   0.36788013 
    1530   -292706.77         1200    0.1122876   0.11216825    0.1058774   0.33033324   0.12388222   0.11852103   0.12689611   0.36929936 
    1540   -292667.04         1200   0.11252501   0.11240341    0.1066848   0.33161322   0.12477757   0.11874597   0.12724053   0.37076407 
    1550   -292633.64         1200   0.11277298    0.1126381   0.10719005   0.33260113   0.12564349   0.11901117   0.12761908   0.37227374 
    1560   -292612.14         1200   0.11303156   0.11287345     0.108703   0.33460801   0.12648943   0.11932568   0.12802236   0.37383748 
    1570   -292596.65         1200   0.11330018   0.11311368    0.1091893   0.33560316   0.12732513   0.11969806   0.12843588   0.37545907 
    1580   -292572.08         1200     0.113578   0.11336171   0.11079974   0.33773945   0.12816317   0.12013024   0.12883165   0.37712506 
    1590   -292538.74         1200   0.11386688     0.113619   0.11128387   0.33876975   0.12901904   0.12060262   0.12917276   0.37879442 
    1600   -292507.67         1200   0.11416946   0.11388817   0.11177189   0.33982952   0.12990101   0.12108299   0.12943364   0.38041764 
    1610   -292482.58         1200   0.11448809   0.11416828   0.11367069   0.34232705   0.13080746   0.12154854   0.12959599   0.38195199 
    1620   -292466.64         1200    0.1148209   0.11445649   0.11417243   0.34344982   0.13172963   0.12198707   0.12964319   0.38335989 
    1630   -292461.07    1199.3063   0.11516113   0.11475541   0.11635771   0.34627425   0.13264824   0.12240315   0.12955708   0.38460848 
    1640   -292460.17    1199.2514   0.11550366   0.11506891   0.11685307   0.34742564    0.1335437   0.12278809   0.12932726   0.38565905 
    1650   -292458.58    1199.0438   0.11584651   0.11539694   0.11733386   0.34857731   0.13440317   0.12311812   0.12895344   0.38647473 
    1660   -292437.43         1200   0.11618657   0.11572977   0.11933492   0.35125126   0.13523843   0.12338757   0.12843149   0.38705749 
    1670   -292411.47         1200   0.11652143   0.11606324   0.11975949   0.35234416   0.13605197    0.1236092   0.12774388   0.38740505 
    1680   -292395.99         1200   0.11684933   0.11639551   0.12080177    0.3540466    0.1368542   0.12378985   0.12689353   0.38753758 
    1690   -292400.13    1200.5463   0.11716907   0.11672567    0.1211428   0.35503753   0.13766788   0.12393441   0.12590273   0.38750502 
    1700   -292424.08         1200   0.11747983   0.11705134   0.12144493    0.3559761   0.13851444    0.1240348   0.12481378   0.38736303 
    1710   -292454.55         1200    0.1177816   0.11736479   0.12122371   0.35637009   0.13940747   0.12405513   0.12368921   0.38715181 
    1720   -292480.99         1200   0.11807611   0.11765851   0.12146782   0.35720245   0.14034046   0.12396821   0.12260219   0.38691086 
    1730   -292502.43         1200   0.11836195   0.11793052   0.12044734   0.35673981   0.14129883   0.12377487   0.12162009   0.38669379 
    1740   -292515.78         1200   0.11863607   0.11817947    0.1206484   0.35746394   0.14227455   0.12349592   0.12079628   0.38656675 
    1750   -292532.06         1200   0.11889608   0.11840471   0.11950257   0.35680336   0.14326348   0.12315989   0.12016966   0.38659303 
    1760    -292546.7         1200    0.1191419    0.1186124    0.1196689   0.35742321   0.14424239   0.12280694   0.11975812   0.38680744 
    1770   -292546.92    1200.0265   0.11937809   0.11880712    0.1184035   0.35658871   0.14518644   0.12247863    0.1195531   0.38721817 
    1780   -292548.18    1200.1908   0.11960924    0.1189836   0.11853918   0.35713202   0.14609172    0.1222019   0.11953849   0.38783211 
    1790   -292554.24     1200.929   0.11983435   0.11914322   0.11733014   0.35630771   0.14694438   0.12202012   0.11970378   0.38866828 
    1800    -292556.3         1200    0.1200464   0.11929553   0.11743043   0.35677236    0.1477171   0.12199883   0.12004052   0.38975645 
    1810   -292545.53         1200   0.12024048   0.11944574    0.1175135   0.35719973   0.14839122   0.12216431   0.12053208    0.3910876 
    1820    -292525.1         1200   0.12041525   0.11959341    0.1162914   0.35630006    0.1489568   0.12251387   0.12116132   0.39263199 
    1830   -292503.43         1200   0.12056652   0.11973802   0.11635484   0.35665938   0.14940956   0.12304833   0.12190847   0.39436637 
    1840   -292483.11         1200   0.12068521   0.11988244   0.11529233   0.35585998   0.14975194   0.12377163   0.12275868   0.39628224 
    1850   -292454.27         1200   0.12076502    0.1200248   0.11533639    0.3561262   0.14998961   0.12467503   0.12371057   0.39837521 
    1860   -292424.21         1200   0.12080805   0.12015767   0.11537884   0.35634455   0.15013737   0.12573829   0.12476358   0.40063924 
    1870   -292385.41         1200   0.12081796     0.120276    0.1145198   0.35561375   0.15021674   0.12691987   0.12590372   0.40304033 
    1880   -292354.79         1200    0.1207921   0.12038557   0.11455936   0.35573703    0.1502323   0.12817884   0.12711877   0.40552991 
    1890   -292333.04         1200   0.12072377   0.12049598   0.11383613   0.35505587   0.15017399   0.12949948   0.12840799   0.40808146 
    1900   -292303.77         1200   0.12061306   0.12060932   0.11385555   0.35507793   0.15005409   0.13086083   0.12976077   0.41067569 
    1910   -292270.75         1200   0.12046524   0.12072328   0.11316873   0.35435725   0.14988206   0.13223913   0.13115505   0.41327624 
    1920   -292245.93         1200   0.12028335   0.12083071   0.11318021   0.35429427    0.1496721   0.13361349   0.13256557   0.41585116 
    1930   -292236.04         1200   0.12006657    0.1209256   0.11257417   0.35356633   0.14943687   0.13496658    0.1339572   0.41836066 
    1940   -292226.36         1200   0.11981435    0.1210102   0.11258977   0.35341431   0.14917488   0.13628105   0.13528961   0.42074554 
    1950   -292213.42         1200   0.11951874   0.12109745   0.11260958   0.35322577   0.14887138   0.13755396   0.13654881   0.42297416 
    1960   -292210.32    1199.5726   0.11917342   0.12119517   0.11220782   0.35257641   0.14851936   0.13878047   0.13773321   0.42503305 
    1970   -292227.45         1200   0.11878399   0.12130218   0.11223462   0.35232079   0.14812721   0.13995021   0.13882662   0.42690404 
    1980   -292258.14         1200   0.11836058   0.12142017   0.11196802   0.35174877   0.14770581    0.1410571   0.13982378   0.42858668 
    1990   -292265.95         1200    0.1179134   0.12155111   0.11201807   0.35148258   0.14726455   0.14208476   0.14074266   0.43009196 
    2000   -292250.61         1200   0.11744772   0.12168703   0.11173062   0.35086538   0.14679763   0.14300196   0.14161257   0.43141216 
    2010   -292241.83         1200   0.11696522   0.12181892   0.11182588   0.35061002   0.14630023   0.14379137   0.14246154   0.43255314 
    2020   -292238.87    1199.5726   0.11646927   0.12194439   0.11194668   0.35036034   0.14577722   0.14445379   0.14331168   0.43354268 
    2030   -292225.69         1200   0.11596341   0.12206444   0.11180483   0.34983268   0.14522597   0.14499581   0.14417764   0.43439943 
    2040   -292222.18    1199.5335    0.1154535   0.12217919   0.11196134   0.34959403   0.14463585   0.14541995   0.14504391   0.43509971 
    2050   -292225.03      1199.89   0.11494909   0.12228498   0.11206607   0.34930014   0.14400637   0.14573765   0.14589059   0.43563461 
    2060   -292216.41         1200   0.11445702   0.12238315   0.11227074   0.34911091   0.14333746   0.14597276   0.14670527    0.4360155 
    2070   -292202.97         1200   0.11397932   0.12248053   0.11248465    0.3489445   0.14262077   0.14615199   0.14747054    0.4362433 
    2080   -292197.26    1199.3033    0.1135206   0.12257999   0.11273079   0.34883138   0.14186249   0.14631809   0.14817285   0.43635343 
    2090   -292198.31     1199.451   0.11308739   0.12268121   0.11302517   0.34879378   0.14108424   0.14651535   0.14879359   0.43639319 
    2100   -292204.28    1200.2485   0.11268105   0.12278484   0.11329313   0.34875902   0.14030224   0.14676405   0.14932401    0.4363903 
    2110   -292209.56    1200.9586   0.11230402   0.12288645   0.11356611   0.34875658   0.13952499   0.14707359    0.1497634   0.43636197 
    2120   -292209.86         1200   0.11196063   0.12297414   0.11395527   0.34889005   0.13878586   0.14744392    0.1501098   0.43633957 
    2130   -292214.34    1200.6735   0.11165433   0.12303272    0.1142413   0.34892835   0.13811905   0.14785915   0.15037142   0.43634963 
    2140   -292232.29         1200   0.11138819   0.12306026   0.11474348   0.34919193   0.13753274   0.14829805   0.15056428   0.43639506 
    2150   -292247.56         1200   0.11116934   0.12306269   0.11502446    0.3492565   0.13703113   0.14873786   0.15070673   0.43647572 
    2160   -292266.08         1200   0.11100267   0.12304442   0.11560459   0.34965169   0.13661843   0.14915476   0.15081951   0.43659269 
    2170   -292299.58         1200   0.11089152   0.12301267   0.11589923   0.34980342   0.13630052   0.14952658   0.15091863   0.43674573 
    2180   -292320.62         1200   0.11083899   0.12298414   0.11620119   0.35002432    0.1360706   0.14983301    0.1510084   0.43691201 
    2190   -292324.02    1200.4503   0.11084765   0.12297132   0.11681341   0.35063238   0.13592459   0.15005343   0.15108767   0.43706569 
    2200    -292321.5    1200.1409   0.11091706   0.12297687   0.11712419   0.35101812   0.13586531   0.15017228    0.1511477   0.43718529 
    2210   -292323.63    1200.3994   0.11104419   0.12300037   0.11764424    0.3516888   0.13588646   0.15017177   0.15118793   0.43724616 
    2220   -292335.54         1200   0.11122632   0.12303897   0.11795715   0.35222244   0.13596565   0.15003794   0.15121634   0.43721993 
    2230   -292344.84         1200   0.11145986   0.12308892   0.11832744   0.35287622   0.13609015   0.14976576   0.15123391   0.43708982 
    2240   -292347.08    1200.3315   0.11173954   0.12314543   0.11862717   0.35351214   0.13625371   0.14935957   0.15123214   0.43684542 
    2250   -292341.53    1199.6553   0.11206124   0.12320229   0.11891677    0.3541803   0.13644613   0.14883051   0.15120217   0.43647881 
    2260   -292323.66         1200   0.11242362   0.12325883    0.1191262   0.35480864   0.13663983   0.14819686   0.15114487   0.43598156 
    2270   -292280.26         1200   0.11282773   0.12331529   0.11937918    0.3555222   0.13679232   0.14747495   0.15107135   0.43533861 
    2280   -292235.11         1200   0.11327636   0.12337111   0.11947096   0.35611843    0.1368696   0.14667209   0.15098773   0.43452941 
    2290   -292197.94         1200   0.11377432   0.12343342   0.11968383   0.35689157   0.13684715   0.14579208    0.1508949   0.43353413 
    2300   -292175.35         1200   0.11432078   0.12351708   0.11988907   0.35772693   0.13670323   0.14484246   0.15079858   0.43234428 
    2310    -292170.8    1199.3804   0.11491286   0.12363011   0.12003251   0.35857548   0.13642656    0.1438391   0.15070375   0.43096941 
    2320   -292183.96         1200    0.1155462   0.12376988   0.12061955   0.35993563   0.13601309   0.14279716   0.15061252   0.42942277 
    2330   -292213.77         1200    0.1162122   0.12392537   0.12069359   0.36083117   0.13545834    0.1417344   0.15052587    0.4277186 
    2340   -292254.62         1200   0.11689765     0.124084   0.12120691   0.36218856    0.1347683   0.14068706   0.15043835   0.42589371 
    2350   -292298.55         1200   0.11759353   0.12423423   0.12121058   0.36303834   0.13396526   0.13967994   0.15033549   0.42398069 
    2360   -292335.22         1200   0.11829667   0.12436125   0.12119429   0.36385221    0.1330977   0.13871275   0.15020271   0.42201315 
    2370   -292354.59         1200   0.11900094   0.12445348   0.12150303   0.36495745   0.13220808   0.13779639   0.15002961   0.42003407 
    2380   -292374.41         1200   0.11970358   0.12451096    0.1214515   0.36566605   0.13131606   0.13694963   0.14981401   0.41807969 
    2390   -292381.89    1200.9497   0.12040317   0.12454564   0.12153169    0.3664805   0.13044062   0.13617956   0.14956398   0.41618417 
    2400   -292383.95         1200     0.121096   0.12456959   0.12145336   0.36711895   0.12960065   0.13548955     0.149292    0.4143822 
    2410    -292381.4     1199.656    0.1217791   0.12458806    0.1213425   0.36770966   0.12881964   0.13488463   0.14900968   0.41271395 
    2420   -292378.71    1199.2691   0.12244953    0.1246092   0.12126969   0.36832842   0.12810704   0.13435544    0.1487375   0.41119998 
    2430   -292375.34         1200   0.12309745   0.12463731   0.12121224     0.368947   0.12746986    0.1338985   0.14848408   0.40985244 
    2440   -292365.68         1200   0.12371116   0.12467316   0.12099417   0.36937849   0.12691222    0.1335291   0.14825899   0.40870031 
    2450   -292350.19         1200   0.12428342   0.12472073   0.12096414    0.3699683   0.12642854   0.13326252   0.14806429   0.40775535 
    2460   -292352.04    1200.2598   0.12480744   0.12478645   0.12064897   0.37024286   0.12599862   0.13311177   0.14788811   0.40699849 
    2470   -292371.43         1200   0.12527435   0.12486931   0.12062853    0.3707722   0.12561264   0.13308947   0.14772109   0.40642321 
    2480   -292377.18    1200.7592   0.12566811   0.12496073   0.12077529   0.37140413   0.12526224    0.1332107   0.14755387   0.40602681 
    2490   -292371.81    1200.0665   0.12597651   0.12504859   0.12075387   0.37177897   0.12494326    0.1334882   0.14737573   0.40580719 
    2500    -292372.9    1200.2652   0.12619928   0.12512369   0.12110044    0.3724234   0.12467175   0.13391244   0.14719139   0.40577558 
    2510   -292381.86         1200    0.1263327   0.12518045   0.12108569   0.37259884   0.12446005   0.13446277   0.14701477   0.40593759 
    2520   -292396.79         1200   0.12637013   0.12522612   0.12122337   0.37281963   0.12429926    0.1351034   0.14686933   0.40627199 
    2530   -292424.19         1200   0.12631194   0.12526249   0.12122375   0.37279818   0.12417677   0.13580582   0.14677984   0.40676242 
    2540   -292456.53         1200   0.12616675   0.12528855   0.12118402   0.37263931   0.12408462    0.1365461   0.14677021   0.40740094 
    2550   -292487.77         1200   0.12594838   0.12530805   0.12121516   0.37247159   0.12401587   0.13730276   0.14686232   0.40818095 
    2560   -292498.27         1200   0.12567188   0.12532562   0.12106554   0.37206303   0.12396054   0.13805145   0.14707554   0.40908754 
    2570   -292496.69    1199.8425   0.12534513   0.12533678   0.12113518    0.3718171   0.12392011    0.1387673   0.14742477   0.41011218 
    2580   -292491.66    1199.2746   0.12497532    0.1253402   0.12121742   0.37153294   0.12389258   0.13942827   0.14791332   0.41123417 
    2590   -292473.23         1200   0.12457038    0.1253366   0.12102247   0.37092945   0.12388132   0.14001265   0.14853289   0.41242686 
    2600   -292455.56         1200   0.12413373   0.12532287   0.12114085   0.37059746   0.12389586   0.14050236   0.14927324   0.41367145 
    2610   -292437.61         1200    0.1236708   0.12529095   0.12089153   0.36985328   0.12395432   0.14088968   0.15010456   0.41494856 
    2620   -292432.35    1199.3225   0.12319125   0.12523021   0.12104911   0.36947057   0.12408014   0.14117135   0.15098811    0.4162396 
    2630   -292430.53    1199.1161   0.12270119   0.12513258   0.12092769   0.36876145   0.12428295   0.14134695   0.15191423   0.41754413 
    2640   -292416.48         1200   0.12220574   0.12499414   0.12112806   0.36832793   0.12456924   0.14141592   0.15288723    0.4188724 
    2650   -292397.53         1200   0.12171135   0.12481631   0.12135224    0.3678799   0.12493965   0.14138307   0.15389577   0.42021848 
    2660    -292382.5         1200   0.12122858   0.12460214   0.12154774   0.36737845   0.12539091   0.14125039   0.15491279   0.42155409 
    2670   -292369.05         1200   0.12076654   0.12435678   0.12183893   0.36696225   0.12592143   0.14102466   0.15591972   0.42286581 
    2680   -292359.28         1200   0.12033188   0.12408851   0.12242181   0.36684221   0.12651886   0.14072683   0.15690667   0.42415236 
    2690   -292358.14    1199.8947   0.11992532   0.12380091   0.12281279   0.36653902    0.1271688   0.14039157   0.15784635   0.42540672 
    2700   -292365.59    1200.8885   0.11954518   0.12350264   0.12343013   0.36647795   0.12785118   0.14005202   0.15870167   0.42660487 
    2710   -292371.73         1200   0.11918721   0.12320261   0.12388213   0.36627195   0.12854471   0.13974027   0.15946003   0.42774501 
    2720   -292372.25    1200.0825   0.11884901   0.12290722   0.12435954   0.36611577   0.12922696   0.13947167   0.16012086   0.42881949 
    2730   -292361.54         1200   0.11853147   0.12261903   0.12495101    0.3661015   0.12987744   0.13925025   0.16068302   0.42981071 
    2740   -292350.17         1200    0.1182329   0.12233957   0.12548679   0.36605927   0.13048048   0.13908288   0.16114224   0.43070561 
    2750   -292334.92         1200   0.11795092   0.12206883   0.12604254    0.3660623   0.13102868   0.13898241   0.16150158   0.43151267 
    2760   -292322.05         1200   0.11768679   0.12180609    0.1266125   0.36610538   0.13151665   0.13895399   0.16177472   0.43224536 
    2770   -292321.41    1199.8859   0.11744062   0.12155045   0.12715596   0.36614703   0.13194163   0.13898368   0.16197931   0.43290462 
    2780   -292329.62    1200.8946   0.11721019   0.12130331      0.12775   0.36626351   0.13230728   0.13905349   0.16213319   0.43349396 
    2790   -292343.85         1200   0.11699605    0.1210683   0.12829765   0.36636199   0.13263178   0.13914713   0.16224084   0.43401975 
    2800   -292360.89         1200   0.11680394   0.12085034   0.12889653   0.36655082   0.13293149   0.13925545   0.16230049   0.43448743 
    2810   -292395.54         1200   0.11664007   0.12065389    0.1294078   0.36670176   0.13321571   0.13937766   0.16231608   0.43490945 
    2820   -292413.69         1200   0.11650917   0.12047867   0.12998123   0.36696907   0.13349744   0.13952151   0.16229701   0.43531596 
    2830   -292419.44    1200.7384   0.11641687   0.12032144    0.1304061   0.36714442   0.13378795   0.13971019   0.16223938   0.43573752 
    2840   -292433.58         1200   0.11636966   0.12018231   0.13090163    0.3674536   0.13409842   0.13996905   0.16213491   0.43620239 
    2850   -292452.56         1200   0.11637146   0.12006197   0.13118745   0.36762089   0.13443999   0.14031613   0.16199065   0.43674677 
    2860   -292472.49         1200   0.11642188   0.11995816   0.13157011   0.36795015   0.13482024    0.1407483   0.16181515   0.43738369 
    2870   -292493.64         1200   0.11651724   0.11986396   0.13189175   0.36827295   0.13524542   0.14124963   0.16160573   0.43810078 
    2880   -292516.59         1200   0.11665193   0.11977483   0.13207186   0.36849861   0.13570888    0.1418001   0.16136513   0.43887411 
    2890   -292529.14         1200   0.11682187   0.11968868   0.13224065    0.3687512   0.13620582   0.14237659   0.16110411   0.43968652 
    2900   -292543.51         1200   0.11702656   0.11960788   0.13233446    0.3689689   0.13674385   0.14295707   0.16082558   0.44052651 
    2910      -292563         1200   0.11725969   0.11953551   0.13234577   0.36914098   0.13731624   0.14351875   0.16053334   0.44136832 
    2920   -292572.52         1200    0.1175106   0.11946929   0.13228872   0.36926861   0.13789321   0.14404662   0.16022224   0.44216207 
    2930   -292580.58         1200   0.11777293   0.11940529   0.13223585   0.36941407   0.13846025   0.14451795    0.1598826   0.44286079 
    2940    -292585.4     1200.632   0.11804652   0.11934617   0.13207005   0.36946274   0.13901863   0.14490972   0.15950814   0.44343649 
    2950   -292590.27         1200   0.11833064   0.11929797    0.1318641   0.36949271   0.13958298   0.14521945   0.15909333   0.44389575 
    2960   -292599.31         1200    0.1186192   0.11926833   0.13170055   0.36958808   0.14017035   0.14545853   0.15862325   0.44425213 
    2970   -292609.61         1200   0.11890252   0.11926364   0.13145007   0.36961623   0.14078787   0.14564298   0.15806843   0.44449928 
    2980   -292618.44         1200   0.11918618   0.11927974   0.13124737   0.36971329   0.14145326   0.14577291   0.15741065   0.44463682 
    2990   -292616.25    1199.7274   0.11947647   0.11930764   0.13097392   0.36975803   0.14218219   0.14585821   0.15664937   0.44468977 
    3000   -292600.53         1200   0.11977759   0.11934425   0.13072866    0.3698505   0.14297175   0.14592636   0.15578272   0.44468082 
    3010    -292568.8         1200   0.12009627   0.11939026   0.13042716   0.36991369   0.14379328   0.14599436   0.15482358   0.44461122 
    3020   -292539.03         1200   0.12044032    0.1194457   0.13010491   0.36999093   0.14460949   0.14606561   0.15379121   0.44446631 
    3030    -292522.5         1200   0.12080334   0.11951209   0.12978399   0.37009942   0.14538145   0.14615627    0.1527001   0.44423783 
    3040   -292510.82         1200   0.12117513   0.11959202     0.129451   0.37021814   0.14607459   0.14627995   0.15156409   0.44391863 
    3050   -292502.95         1200   0.12154539   0.11968973   0.12911282   0.37034794   0.14665884   0.14644453   0.15040567   0.44350905 
    3060   -292495.04    1199.0007   0.12190985   0.11980294   0.12880631    0.3705191   0.14711493   0.14665137   0.14925335   0.44301965 
    3070   -292477.36         1200   0.12226793   0.11992706   0.12848523   0.37068022   0.14743194   0.14689492   0.14813418   0.44246104 
    3080    -292457.7         1200   0.12262189   0.12006006   0.12821931   0.37090126    0.1475963   0.14717769   0.14706524   0.44183923 
    3090   -292449.44         1200   0.12297223   0.12019896   0.12789854   0.37106973   0.14760774   0.14750256   0.14605238   0.44116268 
    3100   -292448.15    1199.8699   0.12331637   0.12033636   0.12767177    0.3713245   0.14747476   0.14787064   0.14510418   0.44044958 
    3110   -292438.23         1200   0.12365299   0.12046888   0.12745793    0.3715798   0.14720856   0.14827303   0.14421522   0.43969681 
    3120   -292428.71         1200   0.12398367   0.12059629   0.12712591   0.37170587    0.1468219   0.14869324   0.14337927   0.43889441 
    3130   -292424.19    1199.4192   0.12430915   0.12072095   0.12691909   0.37194919   0.14633061   0.14910948   0.14259685   0.43803694 
    3140   -292424.54     1199.474   0.12462603   0.12084692    0.1265478   0.37202075   0.14575782   0.14949749   0.14186839   0.43712371 
    3150   -292414.16         1200   0.12493021   0.12097648   0.12636009   0.37226678   0.14512901   0.14984045    0.1411939   0.43616336 
    3160   -292402.49         1200   0.12522076   0.12110803   0.12599941    0.3723282   0.14447394   0.15013213   0.14057009   0.43517616 
    3170   -292393.44         1200   0.12549464   0.12124467   0.12584636   0.37258567   0.14380861   0.15036635   0.13999519   0.43417016 
    3180   -292380.15         1200   0.12574901   0.12138691   0.12554408      0.37268   0.14314523   0.15054599   0.13947146   0.43316269 
    3190   -292365.04         1200   0.12598462   0.12153722   0.12543648   0.37295831   0.14249455   0.15067834   0.13899786   0.43217075 
    3200   -292343.33         1200   0.12620865   0.12170555    0.1252134    0.3731276    0.1418463   0.15077115   0.13856138   0.43117883 
    3210   -292323.85         1200    0.1264309   0.12189962    0.1251391   0.37346962   0.14119507    0.1508273   0.13813466   0.43015702 
    3220   -292312.43         1200   0.12665865   0.12211847   0.12497935   0.37375648   0.14054814     0.150842   0.13770411   0.42909425 
    3230   -292295.29         1200   0.12689868   0.12235826   0.12488245   0.37413939    0.1399086   0.15079464   0.13726433   0.42796758 
    3240   -292285.29         1200   0.12715299   0.12261399   0.12475647   0.37452345   0.13927091   0.15066164   0.13680969   0.42674224 
    3250   -292282.01    1199.5656   0.12741928   0.12287722   0.12461128   0.37490779   0.13864408   0.15042507   0.13634756    0.4254167 
    3260   -292291.86    1200.8751   0.12770037   0.12314713    0.1244512    0.3752987   0.13803807   0.15006741   0.13586675   0.42397224 
    3270   -292310.95         1200   0.12799838   0.12342633   0.12436319    0.3757879   0.13746779   0.14958271   0.13534696   0.42239746 
    3280   -292324.56         1200   0.12831254   0.12371734   0.12420011      0.37623   0.13693796   0.14896667   0.13478233   0.42068697 
    3290   -292344.76         1200   0.12864426   0.12402269   0.12410269   0.37676963   0.13643629   0.14821534   0.13417683   0.41882847 
    3300   -292366.93         1200   0.12899487   0.12433935   0.12396385   0.37729807   0.13596423   0.14731405     0.133537   0.41681529 
    3310   -292389.38         1200   0.12936308   0.12466064   0.12383839   0.37786212   0.13553636   0.14626171   0.13286377   0.41466184 
    3320   -292411.64         1200   0.12974075   0.12497911   0.12379609   0.37851595   0.13516308   0.14510847   0.13216469   0.41243624 
    3330   -292430.63         1200   0.13011615   0.12529006   0.12370093   0.37910715   0.13484092   0.14392052   0.13146259   0.41022404 
    3340   -292451.52         1200   0.13048594   0.12558894   0.12372515   0.37980003   0.13456276   0.14274742   0.13078073   0.40809092 
    3350   -292464.64         1200   0.13084518   0.12586824   0.12365719   0.38037061   0.13432148   0.14163509   0.13014365   0.40610022 
    3360   -292465.45    1200.0974   0.13118452   0.12612077    0.1237417     0.381047    0.1341012    0.1406296   0.12957663   0.40430743 
    3370   -292458.44    1199.1678   0.13149471   0.12634927   0.12368586   0.38152984   0.13388046   0.13976477   0.12907922   0.40272445 
    3380   -292444.93         1200   0.13177047   0.12655487   0.12362467      0.38195   0.13364114   0.13907061   0.12864649   0.40135824 
    3390   -292437.59    1199.0586   0.13201335   0.12673538   0.12359406   0.38234279    0.1333742   0.13857065   0.12827452   0.40021936 
    3400    -292444.8    1199.9987   0.13223005   0.12689214   0.12352474   0.38264693    0.1330899   0.13828134   0.12797353   0.39934478 
    3410   -292456.96         1200   0.13242505   0.12702974   0.12335707   0.38281186    0.1328196   0.13820389   0.12777283   0.39879632 
    3420    -292460.1    1200.4681   0.13260257   0.12715092   0.12329748   0.38305098   0.13258044   0.13833202   0.12766425   0.39857671 
    3430    -292463.5    1200.9426     0.132766   0.12725906   0.12324138   0.38326644   0.13239947   0.13864527    0.1276197   0.39866444 
    3440   -292466.98         1200   0.13291872   0.12735274   0.12308602   0.38335748   0.13229253   0.13910225   0.12762691   0.39902168 
    3450   -292461.81    1199.3622   0.13306829   0.12743329   0.12303436   0.38353595   0.13226021   0.13964783   0.12767374   0.39958178 
    3460   -292455.16         1200   0.13322164   0.12750279   0.12287704   0.38360147   0.13229807   0.14021851   0.12774419   0.40026077 
    3470   -292459.95     1200.619   0.13338602   0.12755612   0.12280731   0.38374944   0.13241525   0.14077751   0.12782322   0.40101598 
    3480   -292464.52         1200    0.1335653   0.12758933   0.12266393   0.38381856    0.1326282   0.14129637   0.12791419   0.40183876 
    3490   -292469.39    1200.6415   0.13376327    0.1275999   0.12257689   0.38394006   0.13295516   0.14173901   0.12801899   0.40271316 
    3500    -292480.2         1200   0.13398169   0.12758559   0.12245342   0.38402071   0.13341498   0.14207795   0.12814163   0.40363456 
    3510   -292493.36         1200   0.13421556   0.12755014   0.12234396   0.38410966   0.13401685   0.14230485   0.12828734   0.40460903 
    3520   -292502.85         1200   0.13445666   0.12749721   0.12223305   0.38418693    0.1347645   0.14241848   0.12846514   0.40564812 
    3530   -292507.41    1200.6183   0.13469768   0.12742441   0.12210242   0.38422451   0.13566101   0.14241902   0.12869245   0.40677248 
    3540    -292500.1    1199.6422   0.13493903   0.12733002   0.12196377   0.38423283   0.13670392   0.14232065   0.12898609   0.40801066 
    3550   -292488.48         1200   0.13518648   0.12722342   0.12185274   0.38426264   0.13786809   0.14215444   0.12935076   0.40937329 
    3560   -292479.95         1200   0.13544659   0.12711108   0.12168703   0.38424471   0.13911511   0.14195467   0.12978338   0.41085317 
    3570    -292463.2         1200   0.13571548   0.12699365   0.12146048   0.38416961   0.14042101   0.14175661   0.13027573   0.41245335 
    3580   -292439.64         1200   0.13599271   0.12687167   0.12125615   0.38412053   0.14177649   0.14158942   0.13080497   0.41417088 
    3590   -292411.68         1200   0.13628018   0.12674853    0.1207946   0.38382331   0.14316776   0.14146727   0.13134635   0.41598138 
    3600   -292374.62         1200   0.13657529   0.12662752   0.12053884   0.38374166   0.14456479   0.14139825     0.131884   0.41784703 
    3610   -292343.22         1200   0.13687651   0.12650655   0.12026737   0.38365042   0.14594155   0.14139568   0.13238249   0.41971972 
    3620   -292339.15    1199.4914    0.1371836    0.1263808   0.11982009   0.38338448   0.14728067   0.14145903   0.13279985   0.42153955 
    3630   -292332.82         1200   0.13748991   0.12624445   0.11955474    0.3832891   0.14854124   0.14156855    0.1331207   0.42323049 
    3640   -292316.98         1200   0.13778841   0.12610192    0.1192051   0.38309543   0.14967233   0.14169556   0.13334138   0.42470926 
    3650   -292306.06         1200   0.13808066   0.12596719   0.11896491   0.38301276   0.15066377   0.14182307    0.1334416   0.42592844 
    3660   -292298.19         1200   0.13836876   0.12584655     0.118661   0.38287631   0.15151015   0.14194775   0.13340379   0.42686169 
    3670   -292301.17    1200.3184   0.13865215    0.1257445   0.11847262   0.38286927   0.15219055   0.14205559   0.13323419   0.42748032 
    3680   -292307.62         1200   0.13893114    0.1256604   0.11832244   0.38291397    0.1527042   0.14213711   0.13294712   0.42778843 
    3690   -292319.91         1200   0.13920632   0.12559472   0.11827861   0.38307964   0.15306492   0.14220616   0.13256724   0.42783832 
    3700   -292342.47         1200   0.13947421   0.12554268   0.11820733   0.38322422   0.15328976    0.1422826   0.13213168   0.42770403 
    3710   -292369.46         1200   0.13972093   0.12550137   0.11832727   0.38354958   0.15339297   0.14237773   0.13166963   0.42744033 
    3720      -292401         1200   0.13993852   0.12547096    0.1183068   0.38371628   0.15339995   0.14248488   0.13119709   0.42708192 
    3730   -292435.55         1200   0.14012994   0.12545579   0.11850277    0.3840885   0.15334761   0.14259703   0.13073213   0.42667677 
    3740   -292457.45         1200    0.1403002   0.12546374   0.11852749   0.38429143   0.15327496   0.14271542     0.130291   0.42628138 
    3750   -292471.13         1200    0.1404552   0.12550489   0.11857352   0.38453362   0.15322279    0.1428442   0.12988783   0.42595483 
    3760   -292471.39    1200.0444   0.14060402   0.12558122    0.1187931   0.38497834   0.15321056   0.14298487   0.12955375   0.42574918 
    3770   -292474.53    1200.5038    0.1407596   0.12569458   0.11887969   0.38533387   0.15325048   0.14314789   0.12930327   0.42570164 
    3780   -292476.47    1200.7579   0.14093362     0.125846   0.11898568    0.3857653   0.15334706   0.14333989   0.12914068   0.42582763 
    3790   -292467.24    1199.5502   0.14112844   0.12603072    0.1191441   0.38630326   0.15349798   0.14355717   0.12904615   0.42610129 
    3800   -292468.24    1199.7027   0.14133883   0.12624761     0.119282   0.38686844   0.15369564   0.14379791   0.12898761   0.42648115 
    3810    -292476.6    1200.7936   0.14155926   0.12649557   0.11935467   0.38740949   0.15393327    0.1440577   0.12895055   0.42694152 
    3820   -292481.93         1200   0.14178522   0.12676972   0.11950513   0.38806008    0.1542031   0.14432424   0.12893202   0.42745936 
    3830   -292474.29         1200   0.14201472    0.1270672   0.11961644   0.38869836   0.15450124   0.14458187   0.12893167   0.42801478 
    3840   -292464.66         1200   0.14225233   0.12738463   0.11976126   0.38939822   0.15483056    0.1448217   0.12895418   0.42860644 
    3850   -292464.26    1199.9465   0.14250106   0.12771909   0.11990009   0.39012024   0.15516869   0.14504517   0.12900394   0.42921779 
    3860   -292452.56         1200   0.14276571   0.12806239   0.12000548   0.39083359   0.15549298   0.14525644   0.12907603   0.42982545 
    3870   -292431.05         1200   0.14304995   0.12840224   0.12013479   0.39158698   0.15579429   0.14545084    0.1291666   0.43041173 
    3880   -292409.59         1200   0.14335468   0.12872548   0.12019214    0.3922723    0.1560554   0.14561918   0.12927391   0.43094849 
    3890   -292392.79         1200   0.14368086   0.12901571   0.12028929   0.39298586   0.15625786   0.14574425   0.12939648   0.43139859 
    3900   -292388.08    1199.3728   0.14402921   0.12926707   0.12035291   0.39364919   0.15640232   0.14582228   0.12953245   0.43175705 
    3910   -292379.13         1200   0.14439162   0.12947329   0.12031203   0.39417694   0.15647644    0.1458538   0.12969814   0.43202837 
    3920   -292374.85    1199.4493    0.1447457   0.12963495   0.12031566   0.39469631   0.15648582    0.1458361   0.12989852   0.43222044 
    3930   -292379.07    1199.9936   0.14508498   0.12975802   0.12024183   0.39508483    0.1564332   0.14576759   0.13011114   0.43231193 
    3940   -292391.35         1200   0.14542004   0.12984621   0.12021856   0.39548481   0.15628146   0.14564711   0.13032019   0.43224876 
    3950    -292405.4         1200   0.14575293   0.12989771   0.12018573   0.39583636   0.15600224    0.1454783   0.13052302   0.43200356 
    3960   -292414.61         1200   0.14608248   0.12990888   0.12008262   0.39607399   0.15559623   0.14526854   0.13071274   0.43157751 
    3970   -292419.61    1200.6328   0.14640747   0.12988304   0.12004043   0.39633094   0.15507658   0.14501677   0.13087683   0.43097018 
    3980   -292429.23         1200   0.14672107    0.1298252   0.11993644    0.3964827   0.15446786   0.14472477   0.13101207   0.43020469 
    3990   -292441.74         1200   0.14702411   0.12973892   0.11989862   0.39666165   0.15382414   0.14441845   0.13111755   0.42936014 
    4000   -292463.65         1200   0.14731563   0.12962724   0.11982653    0.3967694   0.15320267   0.14412909   0.13118619   0.42851796 
    4010   -292465.64    1200.2459    0.1475935   0.12949125   0.11980614   0.39689088   0.15261144   0.14389239   0.13122508   0.42772892 
    4020   -292457.46    1199.1414   0.14785551   0.12933562   0.11980087     0.396992   0.15206271   0.14372629   0.13123399     0.427023 
    4030    -292445.2         1200   0.14810027   0.12917206   0.11981701   0.39708935   0.15158586   0.14362944   0.13120049   0.42641579 
    4040   -292433.28         1200    0.1483343   0.12901277   0.11986048   0.39720754   0.15121238   0.14359741   0.13111009   0.42591988 
    4050   -292437.67     1200.557   0.14856917   0.12886241   0.11992508   0.39735666    0.1509622   0.14362141   0.13095811   0.42554172 
    4060   -292442.68         1200   0.14881284   0.12872317   0.12001157   0.39754758   0.15083082   0.14369772   0.13075536   0.42528391 
    4070      -292439    1199.4876   0.14907065   0.12859199   0.12012658   0.39778922   0.15080397   0.14383188   0.13050921   0.42514507 
    4080   -292431.09         1200   0.14934884    0.1284627    0.1202717   0.39808324    0.1508586   0.14403314   0.13022442   0.42511616 
    4090   -292425.96    1199.3265   0.14965107   0.12833091   0.12043794   0.39841992   0.15097874   0.14430702   0.12991086   0.42519662 
    4100   -292432.02    1200.0722   0.14996886    0.1282022   0.12062316   0.39879421   0.15113318   0.14465809   0.12959226   0.42538353 
    4110   -292446.35         1200   0.15029645   0.12808366   0.12081772   0.39919784    0.1512921   0.14508785   0.12928807   0.42566803 
    4120   -292457.64         1200   0.15062985   0.12797617   0.12103946   0.39964548   0.15144994   0.14558606   0.12901046   0.42604646 
    4130   -292441.75         1200   0.15096568   0.12787687   0.12124919   0.40009174   0.15164725   0.14614415   0.12875981    0.4265512 
    4140   -292416.96         1200   0.15130021   0.12778507   0.12144977   0.40053505   0.15191162   0.14674192   0.12853306    0.4271866 
    4150    -292378.4         1200   0.15162727   0.12770129   0.12164308   0.40097164   0.15225455   0.14734459    0.1283366   0.42793574 
    4160   -292336.81         1200   0.15193697   0.12763065   0.12183231   0.40139993   0.15267613   0.14792682   0.12817259   0.42877554 
    4170   -292297.36         1200   0.15222673   0.12757871   0.12199009   0.40179554   0.15316691     0.148484   0.12803899    0.4296899 
    4180   -292263.35         1200   0.15249669   0.12755278    0.1221401   0.40218958   0.15371635   0.14901769   0.12793401   0.43066805 
    4190   -292219.02         1200   0.15274347   0.12755943   0.12225466   0.40255757   0.15431303   0.14952801   0.12785702   0.43169806 
    4200   -292172.69         1200   0.15296289   0.12760017   0.12233717   0.40290023   0.15494087   0.15000826   0.12780847    0.4327576 
    4210   -292145.61         1200   0.15315066   0.12767446   0.12236904   0.40319416   0.15557495    0.1504382   0.12779118   0.43380433 
    4220   -292128.96         1200   0.15331044    0.1277827    0.1223545   0.40344765   0.15615963   0.15078723   0.12781408   0.43476094 
    4230   -292118.65         1200   0.15345122   0.12792395   0.12229853    0.4036737   0.15664489   0.15102113   0.12788463   0.43555065 
    4240   -292127.41         1200   0.15358052   0.12809784   0.12221197   0.40389034   0.15701637   0.15112183   0.12800932   0.43614753 
    4250   -292144.34         1200   0.15369856    0.1283013   0.12207185   0.40407171   0.15725964   0.15109752   0.12819087   0.43654803 
    4260   -292174.71         1200   0.15380227   0.12853255     0.121887   0.40422181   0.15736865   0.15096708   0.12844244   0.43677817 
    4270   -292216.47         1200   0.15389063   0.12879335    0.1216287   0.40431268   0.15736063   0.15073377   0.12877737   0.43687177 
    4280   -292262.17         1200   0.15396105   0.12908194   0.12131993   0.40436292   0.15725264   0.15039893   0.12920265   0.43685422 
    4290   -292280.13         1200   0.15401584   0.12939517   0.12098418   0.40439519    0.1570858    0.1499855   0.12969816   0.43676946 
    4300   -292291.03         1200   0.15405672   0.12973022   0.12055663   0.40434356   0.15690703   0.14951407    0.1302349   0.43665599 
    4310   -292307.41         1200   0.15408113   0.13008622   0.12012407   0.40429142   0.15673095   0.14897217   0.13079419   0.43649731 
    4320   -292326.86         1200   0.15408418   0.13046368    0.1196079   0.40415576   0.15655195   0.14833614   0.13135146   0.43623955 
    4330   -292363.17         1200    0.1540639   0.13086127   0.11915319   0.40407836    0.1563734   0.14759474   0.13187301   0.43584116 
    4340   -292416.04         1200   0.15401955   0.13127669   0.11861635   0.40391259   0.15621294   0.14674312   0.13233315   0.43528921 
    4350   -292465.04         1200   0.15395004   0.13171259   0.11808582   0.40374845   0.15608748   0.14579023   0.13271908    0.4345968 
    4360    -292492.9         1200   0.15385412   0.13217028   0.11770119   0.40372559   0.15600317   0.14476189   0.13303392   0.43379898 
    4370   -292514.16         1200   0.15373696   0.13264152   0.11722297   0.40360146   0.15594738   0.14367758   0.13328935   0.43291431 
    4380   -292531.66         1200   0.15361055   0.13311142   0.11698855   0.40371052   0.15587815   0.14252255    0.1334928   0.43189349 
    4390   -292545.61         1200   0.15348384   0.13357014   0.11661113   0.40366512   0.15578129   0.14129507   0.13364276   0.43071913 
    4400   -292550.83    1200.6985   0.15336093   0.13401294   0.11654071   0.40391459   0.15567389    0.1400099   0.13373412    0.4294179 
    4410   -292545.42    1199.9987    0.1532499   0.13443443   0.11627009   0.40395443   0.15556348   0.13867258   0.13376202   0.42799808 
    4420   -292535.44         1200   0.15316174   0.13482934   0.11606513   0.40405621   0.15545652    0.1372872   0.13372935   0.42647307 
    4430   -292518.65         1200   0.15309593   0.13519663   0.11621023   0.40450279   0.15538842   0.13588976   0.13363638   0.42491455 
    4440   -292495.42         1200   0.15303985   0.13553631   0.11613243   0.40470859   0.15541692   0.13452398   0.13348161   0.42342251 
    4450   -292475.01         1200   0.15298399   0.13585383   0.11635032   0.40518814   0.15556704   0.13320621    0.1332857   0.42205894 
    4460   -292466.86         1200   0.15293246   0.13615428   0.11636178   0.40544851   0.15584574   0.13195317   0.13306395   0.42086286 
    4470   -292474.32    1200.9616   0.15288407   0.13643271     0.116618   0.40593478   0.15626131   0.13077937   0.13283668   0.41987735 
    4480   -292486.91         1200   0.15283445   0.13668147    0.1167071   0.40622302   0.15682152   0.12970034   0.13262339   0.41914525 
    4490   -292500.86         1200   0.15278721    0.1368942   0.11682251   0.40650391    0.1575253   0.12874435   0.13243816   0.41870781 
    4500   -292517.38         1200   0.15274618   0.13706446   0.11710469   0.40691534   0.15835834   0.12792525   0.13227805   0.41856165 
    4510   -292528.75         1200   0.15271635   0.13718731   0.11724958   0.40715324   0.15929799   0.12723318    0.1321274   0.41865857 
    4520   -292528.14    1199.8945    0.1527014   0.13726394   0.11745992   0.40742527   0.16031304   0.12665299   0.13198958   0.41895561 
    4530   -292529.71    1200.1104   0.15270573   0.13729814   0.11763333    0.4076372   0.16137813   0.12618288   0.13186971   0.41943071 
    4540   -292547.11         1200    0.1527358   0.13729588   0.11777386   0.40780554   0.16249175   0.12583497   0.13175829   0.42008501 
    4550   -292559.19         1200   0.15280089   0.13727069   0.11796253   0.40803412    0.1636456   0.12560805   0.13164696   0.42090062 
    4560   -292551.99    1199.0873   0.15290233   0.13723816   0.11806637   0.40820685   0.16482916   0.12550345   0.13150993   0.42184254 
    4570   -292535.02         1200   0.15303668   0.13720503   0.11826655   0.40850825   0.16603779   0.12551715   0.13132271   0.42287764 
    4580   -292520.78         1200   0.15319648    0.1371725   0.11839041   0.40875939   0.16727002   0.12563419    0.1310769   0.42398111 
    4590   -292514.32    1199.2247    0.1533661   0.13714089   0.11859864   0.40910563   0.16851273   0.12584126   0.13079716   0.42515115 
    4600   -292519.71    1199.8994    0.1535347   0.13711399   0.11880475   0.40945343   0.16973927   0.12613646   0.13051478    0.4263905 
    4610    -292527.6    1200.9082   0.15370289   0.13708823   0.11893605   0.40972718   0.17092182   0.12651231   0.13023089   0.42766502 
    4620   -292524.31    1200.4835   0.15387637   0.13705747   0.11913196    0.4100658   0.17202941   0.12696334   0.12992783   0.42892058 
    4630   -292507.12         1200   0.15406477   0.13701957   0.11922066   0.41030499   0.17302513   0.12747566   0.12959923   0.43010002 
    4640   -292485.63         1200   0.15427774   0.13697345   0.11940131    0.4106525   0.17387417   0.12802386   0.12925203   0.43115006 
    4650   -292469.62         1200   0.15452112   0.13691955    0.1194084   0.41084907   0.17454811   0.12858931   0.12888951   0.43202693 
    4660   -292455.54         1200   0.15479592   0.13686211   0.11956736   0.41122539   0.17502711   0.12916139   0.12851328   0.43270177 
    4670   -292446.71         1200    0.1550999   0.13680722   0.11947857   0.41138568    0.1752965   0.12973673   0.12812523   0.43315847 
    4680   -292435.29         1200    0.1554227   0.13675757   0.11961669   0.41179696   0.17534402   0.13030945   0.12773409   0.43338755 
    4690   -292425.99         1200   0.15575103   0.13670664   0.11974934   0.41220701   0.17517005   0.13087102   0.12735864    0.4333997 
    4700   -292417.81         1200   0.15607327   0.13664928   0.11985058   0.41257313   0.17477941    0.1314141   0.12702491   0.43321843 
    4710    -292415.2    1199.6159   0.15637505   0.13659098    0.1199768   0.41294283   0.17416105   0.13193778   0.12676409   0.43286293 
    4720   -292409.85         1200    0.1566481   0.13653938   0.12007937   0.41326685   0.17330975   0.13245648   0.12658573   0.43235197 
    4730   -292413.15    1200.3743   0.15688914   0.13649168   0.12020188    0.4135827   0.17224098   0.13298689   0.12648928   0.43171714 
    4740   -292411.12    1200.1038   0.15709642   0.13644238   0.12025231    0.4137911   0.17098065   0.13353771   0.12646672   0.43098508 
    4750   -292394.19         1200   0.15727146    0.1363864   0.12037339   0.41403126   0.16955751   0.13411026   0.12650504   0.43017281 
    4760   -292374.74         1200   0.15743517   0.13632012   0.12071507   0.41447036   0.16800956   0.13469241   0.12659002   0.42929199 
    4770   -292368.92    1199.2413   0.15759943    0.1362419   0.12084633   0.41468766   0.16639387   0.13526699   0.12671543   0.42837629 
    4780   -292382.65         1200   0.15776676   0.13615263   0.12097743   0.41489682   0.16477706   0.13582109   0.12688012   0.42747826 
    4790   -292405.24         1200   0.15793956   0.13605467   0.12114594   0.41514017   0.16320628   0.13633993   0.12708101   0.42662722 
    4800    -292410.6    1200.7125   0.15811361   0.13594789   0.12125587   0.41531737   0.16173985   0.13680051    0.1273245   0.42586485 
    4810   -292404.77    1199.9692   0.15827902   0.13584007   0.12118372   0.41530281   0.16042118   0.13719408   0.12760983   0.42522509 
    4820   -292390.24         1200   0.15842817   0.13573734    0.1212576   0.41542311   0.15926247   0.13751639   0.12791266   0.42469152 
    4830   -292374.33         1200   0.15856218   0.13563565   0.12103555   0.41523339   0.15826089   0.13777368   0.12821849   0.42425306 
    4840   -292359.44         1200    0.1586833   0.13552866   0.12109772   0.41530969   0.15740936   0.13797528   0.12852751   0.42391215 
    4850   -292351.61         1200   0.15879147   0.13541544   0.12095356   0.41516047   0.15670264   0.13811647   0.12884762   0.42366673 
    4860   -292356.16    1200.6011   0.15888548   0.13530425   0.12102263   0.41521236   0.15613116   0.13819532   0.12917734   0.42350383 
    4870   -292377.62         1200   0.15896298   0.13519908   0.12144202   0.41560408   0.15567714   0.13821934   0.12950551     0.423402 
    4880   -292405.62         1200   0.15901549   0.13509498   0.12153007   0.41564054   0.15531427   0.13820283   0.12984111   0.42335821 
    4890   -292436.76         1200   0.15904729   0.13499796   0.12201231   0.41605755   0.15500635   0.13817197   0.13019221   0.42337054 
    4900   -292470.68         1200   0.15906573   0.13490889   0.12208556   0.41606018    0.1547288    0.1381436   0.13057419   0.42344659 
    4910   -292491.91         1200   0.15908066   0.13482585   0.12215064   0.41605715   0.15447126   0.13813339   0.13101226    0.4236169 
    4920   -292491.56    1199.9477   0.15910529   0.13475283   0.12257735   0.41643548   0.15423453   0.13813701   0.13154303   0.42391456 
    4930   -292477.19         1200   0.15914963   0.13469751   0.12264292   0.41649006   0.15402109   0.13814494   0.13218788   0.42435391 
    4940   -292457.78         1200    0.1592149   0.13466458   0.12298558   0.41686506   0.15382972   0.13815353    0.1329444   0.42492765 
    4950   -292439.17         1200   0.15929745   0.13465526   0.12307416   0.41702687    0.1536575    0.1381612   0.13380434   0.42562305 
    4960   -292405.82         1200   0.15939065    0.1346653   0.12329469   0.41735064   0.15350699    0.1381683    0.1347504    0.4264257 
    4970   -292362.54         1200   0.15947857    0.1346915   0.12342045   0.41759052   0.15338947   0.13817386   0.13574921   0.42731253 
    4980   -292323.83         1200    0.1595387   0.13473593   0.12356088   0.41783551    0.1533076    0.1381806   0.13677484   0.42826304 
    4990   -292293.55         1200   0.15956588   0.13479266   0.12371311   0.41807164   0.15325389    0.1381955   0.13780452   0.42925391 
    5000   -292245.71         1200   0.15955822   0.13485635   0.12386313    0.4182777   0.15320159   0.13823743   0.13882207   0.43026108 
    5010   -292194.69         1200   0.15951318   0.13492727   0.12394166    0.4183821   0.15312971     0.138307   0.13979974   0.43123645 
    5020   -292160.81         1200   0.15943026   0.13500678   0.12409689   0.41853393   0.15302805   0.13839724   0.14070405   0.43212934 
    5030   -292129.07         1200   0.15931254   0.13509685   0.12411538   0.41852478   0.15289848   0.13851134   0.14149997   0.43290979 
    5040   -292103.37         1200   0.15916236   0.13520321   0.12428684   0.41865241   0.15275769   0.13864616   0.14215614   0.43355999 
    5050   -292081.84         1200   0.15897893    0.1353319   0.12447349   0.41878432   0.15262764    0.1387974   0.14265207   0.43407711 
    5060   -292063.85         1200   0.15875936   0.13548561   0.12449083   0.41873579   0.15252367     0.138962   0.14297726   0.43446292 
    5070   -292037.73         1200   0.15850475    0.1356646   0.12470961   0.41887896   0.15246044   0.13913005   0.14314035   0.43473084 
    5080   -292014.55         1200   0.15822014   0.13586509   0.12475063   0.41883587    0.1524571   0.13928695   0.14314592   0.43488997 
    5090   -292009.67    1199.3479   0.15790678   0.13607831   0.12480285   0.41878794   0.15251643   0.13941893   0.14300751   0.43494288 
    5100   -292015.55    1200.1005   0.15756276   0.13629772   0.12503307   0.41889355   0.15262754   0.13951221   0.14275051   0.43489026 
    5110   -292032.54         1200   0.15719108     0.136519   0.12523034   0.41894042   0.15276526   0.13956115   0.14238211   0.43470852 
    5120   -292056.72         1200   0.15679866   0.13673348   0.12544803   0.41898017   0.15290018   0.13956236   0.14191069   0.43437322 
    5130   -292088.95         1200   0.15638898   0.13694187   0.12631527   0.41964612   0.15301768   0.13951103   0.14135532   0.43388403 
    5140   -292133.69         1200    0.1559618    0.1371504   0.12653218   0.41964438   0.15311793   0.13940197   0.14073105   0.43325095 
    5150   -292181.09         1200   0.15551191   0.13736695   0.12674754   0.41962639   0.15320582   0.13924944   0.14005335    0.4325086 
    5160   -292215.43         1200   0.15503595    0.1376063     0.127628   0.42027025   0.15330009   0.13908853   0.13934225   0.43173086 
    5170   -292251.39         1200   0.15453438    0.1378758   0.12784619   0.42025637   0.15344288   0.13894848   0.13862873   0.43102009 
    5180   -292308.42         1200   0.15400928   0.13817565   0.12861431   0.42079923   0.15366999   0.13884005   0.13794794   0.43045798 
    5190   -292372.31         1200   0.15346404   0.13851246    0.1288269    0.4208034    0.1540021   0.13876784   0.13732821   0.43009814 
    5200   -292435.22         1200       0.1529   0.13889105   0.12937692   0.42116797   0.15445506   0.13873677   0.13679494   0.42998677 
    5210   -292484.12         1200   0.15232256   0.13931196   0.12959177   0.42122628   0.15503746   0.13875462   0.13635084   0.43014292 
    5220   -292519.02         1200   0.15173775   0.13976997   0.12987979   0.42138752   0.15575561   0.13882767   0.13599428   0.43057756 
    5230   -292529.88         1200   0.15114746   0.14025869   0.13009709   0.42150324   0.15662592   0.13895313   0.13572958   0.43130863 
    5240   -292524.98    1199.3343    0.1505469   0.14078165   0.13031217   0.42164072   0.15764949   0.13913099   0.13555805   0.43233853 
    5250   -292515.53         1200   0.14993491   0.14133653    0.1304434   0.42171483   0.15881371   0.13934252   0.13549702   0.43365325 
    5260   -292503.79         1200    0.1493131   0.14191123   0.13064564   0.42186997   0.16009243   0.13957166   0.13554955   0.43521364 
    5270   -292488.62         1200   0.14868178   0.14249415   0.13065842   0.42183435   0.16145167   0.13981648   0.13571254    0.4369807 
    5280    -292470.9         1200   0.14803827   0.14308121   0.13082895   0.42194842   0.16285849   0.14007213   0.13597616   0.43890679 
    5290   -292458.41         1200   0.14738273   0.14367354   0.13098152   0.42203779   0.16427796   0.14033401   0.13632044   0.44093242 
    5300   -292447.62         1200   0.14671752   0.14427733   0.13082443   0.42181927   0.16567322   0.14060828   0.13673876   0.44302026 
    5310   -292426.04         1200   0.14604881   0.14490167   0.13095501   0.42190549   0.16701369   0.14090944   0.13723934   0.44516248 
    5320   -292409.41         1200   0.14539387   0.14554563   0.13070985   0.42164935   0.16826229   0.14124187   0.13782437   0.44732854 
    5330    -292392.8         1200   0.14477232   0.14619974   0.13083868   0.42181075    0.1693686   0.14160922   0.13848037   0.44945818 
    5340   -292368.19         1200   0.14418662   0.14686248    0.1305422   0.42159129   0.17029038   0.14202181   0.13918439   0.45149658 
    5350   -292337.26         1200   0.14362815   0.14753638   0.13068295   0.42184747   0.17099808   0.14247854   0.13992554   0.45340216 
    5360   -292313.51         1200   0.14309896   0.14822324   0.13041558   0.42173778   0.17148296   0.14296806   0.14069707   0.45514808 
    5370   -292294.86         1200   0.14260488   0.14892361   0.13057913   0.42210762   0.17175184   0.14348691    0.1414999   0.45673865 
    5380   -292286.57         1200   0.14214975    0.1496352   0.13036704   0.42215199   0.17180829   0.14403398   0.14234358   0.45818584 
    5390   -292293.32    1200.8652   0.14173674   0.15034983   0.13056161   0.42264818   0.17165582   0.14459329   0.14324599    0.4594951 
    5400   -292303.12         1200    0.1413686   0.15105495    0.1304253   0.42284885     0.171323    0.1451434    0.1441925    0.4606589 
    5410   -292312.45         1200   0.14104633   0.15174641   0.13064256   0.42343529   0.17084742   0.14567332   0.14514496   0.46166569 
    5420   -292329.46         1200   0.14077603   0.15241625   0.13053829   0.42373057   0.17027843   0.14617168   0.14607916   0.46252928 
    5430   -292352.43         1200   0.14056035   0.15305026   0.13075134   0.42436195   0.16965978   0.14661983   0.14697443   0.46325405 
    5440   -292375.51         1200   0.14040054   0.15363634   0.13068242    0.4247193   0.16902024   0.14699973   0.14781116   0.46383113 
    5450   -292393.45         1200   0.14029577    0.1541667    0.1308858   0.42534827   0.16837128   0.14730233   0.14857372   0.46424733 
    5460   -292418.56         1200   0.14024019   0.15463704   0.13089066    0.4257679   0.16773648    0.1475264   0.14925429   0.46451717 
    5470   -292445.25         1200   0.14022681   0.15504357   0.13107331   0.42634369   0.16714208   0.14767858   0.14984763   0.46466829 
    5480   -292476.63         1200    0.1402555   0.15538169   0.13124237   0.42687955   0.16657708   0.14776971   0.15035166   0.46469845 
    5490   -292504.31         1200    0.1403243   0.15564844     0.131302   0.42727473   0.16603694   0.14782824   0.15077222    0.4646374 
    5500   -292522.03         1200   0.14042831   0.15584037    0.1314364   0.42770508    0.1655173   0.14788291   0.15111506   0.46451527 
    5510    -292520.9    1199.8413   0.14055855   0.15595808   0.13156615   0.42808278    0.1649982   0.14794377   0.15137601   0.46431798 
    5520   -292506.75         1200   0.14070547   0.15600875   0.13165841   0.42837263   0.16445749   0.14802125   0.15155364   0.46403238 
    5530   -292485.99         1200   0.14085861   0.15600065   0.13196888   0.42882814   0.16387251   0.14812818   0.15164017   0.46364086 
    5540      -292468         1200   0.14101935   0.15594142   0.13201645   0.42897722   0.16324783   0.14827365   0.15162356   0.46314504 
    5550   -292457.05         1200   0.14119094   0.15583818   0.13227641   0.42930553   0.16257373   0.14846355   0.15150642    0.4625437 
    5560   -292445.08         1200   0.14137152   0.15569776   0.13227828   0.42934755   0.16183555    0.1487012   0.15129753   0.46183428 
    5570   -292423.61         1200   0.14154774   0.15552567   0.13245268   0.42952609   0.16104343   0.14899142   0.15098995    0.4610248 
    5580   -292405.74         1200   0.14171236   0.15532151   0.13239775   0.42943161   0.16021346   0.14934143   0.15057583   0.46013071 
    5590   -292393.07         1200   0.14186293   0.15508666    0.1324682   0.42941778   0.15935884   0.14974777   0.15006967   0.45917628 
    5600   -292389.63    1199.5636   0.14199411   0.15482418   0.13233667   0.42915497    0.1584952    0.1501974   0.14949689    0.4581895 
[...]
  248670   -293269.07         1200    1.5067076    1.4950208     1.486896    4.4886244    1.5342013     1.605821    1.4868379    4.6268603 
  248680   -293295.94         1200    1.5053959    1.4937341    1.4885938    4.4877237    1.5370212    1.6079815    1.4867353    4.6317379 
  248690   -293324.53         1200    1.5041138    1.4925389    1.4903223     4.486975     1.539384    1.6101112    1.4865262    4.6360214 
  248700   -293335.44         1200    1.5028629    1.4914476    1.4918959    4.4862064    1.5412544    1.6122617     1.486214    4.6397301 
  248710   -293331.07    1199.4117    1.5016365    1.4904625    1.4936228    4.4857217     1.542633    1.6144368    1.4857375    4.6428073 
  248720   -293322.46         1200    1.5004365    1.4895712    1.4952871    4.4852948    1.5435132    1.6166204    1.4850226    4.6451562 
  248730   -293318.99    1199.5443    1.4992707    1.4887781    1.4968785    4.4849273    1.5438785    1.6188247    1.4840684    4.6467715 
  248740   -293317.32     1199.302    1.4981553    1.4881005     1.498334    4.4845897    1.5437425    1.6210492    1.4829317    4.6477234 
  248750   -293314.24         1200    1.4971065    1.4875444    1.4995987    4.4842496    1.5431377    1.6232727    1.4816609    4.6480712 
  248760   -293307.57    1199.1286    1.4961535    1.4871098    1.5006831    4.4839464    1.5420895     1.625472    1.4802847    4.6478462 
  248770   -293294.17         1200    1.4953266    1.4868016    1.5015477    4.4836759    1.5406324    1.6276343    1.4788552    4.6471219 
  248780   -293265.57         1200    1.4946383    1.4866193    1.5022786    4.4835363    1.5388274    1.6297263    1.4774023     4.645956 
  248790   -293242.06         1200    1.4941018    1.4865677    1.5028157    4.4834852     1.536739    1.6317221    1.4759124    4.6443735 
  248800   -293223.35         1200    1.4937393    1.4866513    1.5032831    4.4836736    1.5344406    1.6335897    1.4744064    4.6424367 
  248810   -293216.38    1199.0978     1.493578    1.4868723    1.5035811    4.4840315    1.5319799      1.63529    1.4729331     4.640203 
  248820   -293221.38    1199.7927    1.4936258    1.4872279    1.5038473    4.4847011    1.5293957    1.6367541    1.4715261    4.6376759 
  248830   -293216.28    1199.1659    1.4938416    1.4876882    1.5039829    4.4855128      1.52678    1.6378967    1.4701981    4.6348747 
  248840   -293207.15         1200     1.494189     1.488243    1.5041673    4.4865994    1.5241704    1.6386423    1.4689569    4.6317696 
  248850   -293202.94    1199.5159    1.4946426    1.4889038    1.5042796     4.487826     1.521574    1.6389736    1.4677969    4.6283445 
  248860   -293217.05         1200     1.495189    1.4896556    1.5044779    4.4893225    1.5190035    1.6389199    1.4666941    4.6246176 
  248870   -293239.13         1200    1.4958191     1.490472    1.5046861    4.4909771    1.5164814    1.6385364    1.4656392    4.6206569 
  248880   -293258.38         1200    1.4965124    1.4913304    1.5048468    4.4926896    1.5140366    1.6378431    1.4647158    4.6165956 
  248890   -293271.69         1200    1.4972422    1.4922126    1.5051509    4.4946057    1.5116996    1.6368358    1.4639942    4.6125296 
  248900   -293287.33         1200    1.4979777    1.4931188      1.50551    4.4966065    1.5095087    1.6355131    1.4635108    4.6085325 
  248910   -293302.11         1200     1.498688     1.494054    1.5059649    4.4987069    1.5074888    1.6338796    1.4632874    4.6046558 
  248920   -293300.13    1199.7338    1.4993647    1.4950429    1.5064863    4.5008939    1.5056121    1.6319359    1.4633336    4.6008816 
  248930   -293287.82         1200    1.5000123    1.4961127    1.5070793    4.5032043    1.5038537    1.6297126    1.4636599    4.5972262 
  248940   -293279.33         1200    1.5006118    1.4972582    1.5077318    4.5056018    1.5022741    1.6272276    1.4642666    4.5937683 
  248950   -293271.53         1200    1.5011528    1.4984743    1.5083809     4.508008    1.5009199    1.6245019    1.4651402     4.590562 
  248960   -293262.49         1200    1.5016336    1.4997519    1.5091401    4.5105255    1.4998351    1.6215772    1.4662664    4.5876788 
  248970    -293248.8         1200    1.5020559     1.501084    1.5098411     4.512981    1.4990502    1.6185048    1.4676141    4.5851691 
  248980   -293232.92         1200     1.502421    1.5024742    1.5106353    4.5155305    1.4985828     1.615327    1.4691078    4.5830176 
  248990   -293205.74         1200    1.5027206    1.5039228    1.5113261    4.5179695    1.4984455    1.6120759     1.470683    4.5812043 
  249000   -293170.35         1200    1.5029352     1.505419    1.5120933    4.5204476    1.4986732    1.6087781    1.4723304    4.5797816 
  249010   -293145.63         1200    1.5030332    1.5069573    1.5128242    4.5228147    1.4993047    1.6054441    1.4740656    4.5788144 
  249020   -293132.89         1200    1.5029937     1.508553    1.5135041    4.5250507    1.5003218    1.6020643    1.4758851    4.5782712 
  249030   -293132.49    1199.9495    1.5028195    1.5102267    1.5141431    4.5271893    1.5016633    1.5986399    1.4777647    4.5780679 
  249040   -293129.31    1199.5403    1.5025249    1.5119831    1.5148215    4.5293295    1.5032786    1.5951819    1.4796822    4.5781427 
  249050   -293127.58    1199.2957    1.5021206    1.5138101    1.5153527    4.5312834    1.5051298    1.5917231    1.4816627    4.5785156 
  249060   -293133.13     1199.996    1.5016167     1.515698    1.5159585    4.5332731    1.5071877    1.5883096    1.4837484    4.5792457 
  249070   -293149.14         1200    1.5010233    1.5176385    1.5163735    4.5350353    1.5094188    1.5849954    1.4859367     4.580351 
  249080   -293160.04         1200    1.5003575    1.5196125    1.5169438    4.5369139    1.5117791    1.5818433    1.4881928    4.5818153 
  249090   -293169.74         1200     1.499632    1.5215898    1.5172872    4.5385089    1.5142194    1.5789039    1.4904968    4.5836201 
  249100   -293186.34         1200    1.4988455      1.52354     1.517601    4.5399866    1.5167134    1.5762275    1.4928178    4.5857587 
  249110   -293208.98         1200    1.4979856    1.5254385    1.5181557    4.5415798     1.519263    1.5738664    1.4951265    4.5882559 
  249120   -293240.61         1200    1.4970494    1.5272614    1.5183636    4.5426745    1.5218649    1.5718323    1.4973883    4.5910855 
  249130   -293282.46         1200    1.4960399     1.528989    1.5188715    4.5439004    1.5244892    1.5701246    1.4995941    4.5942079 
  249140   -293331.46         1200    1.4949569     1.530604     1.518895     4.544456    1.5270706    1.5687708     1.501743    4.5975845 
  249150   -293368.17         1200    1.4937881    1.5320864    1.5192946    4.5451691     1.529579    1.5677991    1.5038203    4.6011984 
  249160   -293391.19         1200    1.4925298    1.5334352    1.5191926    4.5451575     1.531985    1.5672386    1.5058192    4.6050428 
  249170   -293394.68    1200.4516    1.4911973    1.5346588    1.5190601    4.5449162    1.5341985    1.5671379     1.507765    4.6091014 
  249180   -293389.03    1199.7355    1.4898023    1.5357567    1.5194094    4.5449684    1.5361395    1.5675287    1.5096661    4.6133343 
  249190   -293393.71    1200.3568     1.488362    1.5367232    1.5192342    4.5443193    1.5377395     1.568438    1.5115162    4.6176937 
  249200   -293393.48    1200.3196    1.4868935    1.5375515    1.5195831    4.5440281    1.5389902    1.5698663    1.5133134    4.6221699 
  249210   -293396.44    1200.7254    1.4853985    1.5382565    1.5193991     4.543054    1.5399723    1.5717796    1.5150528    4.6268047 
  249220   -293396.37    1200.7515    1.4838804    1.5388627    1.5197086    4.5424516    1.5407268    1.5741722    1.5167219    4.6316209 
  249230   -293392.01    1200.1896    1.4823425    1.5393721    1.5195519    4.5412665    1.5412952    1.5770351    1.5182956    4.6366258 
  249240   -293375.91         1200    1.4807828    1.5397693    1.5194152    4.5399674    1.5417529    1.5803332    1.5197283    4.6418144 
  249250   -293350.02         1200    1.4792183    1.5400457    1.5197103    4.5389743    1.5421244    1.5839887    1.5209719     4.647085 
  249260   -293320.35         1200    1.4776676    1.5402018    1.5196474    4.5375168    1.5424084    1.5879169    1.5220061    4.6523314 
  249270   -293290.91         1200    1.4761451    1.5402373    1.5199248    4.5363073    1.5426283    1.5920466    1.5228672    4.6575421 
  249280   -293259.19         1200    1.4746676    1.5401506    1.5200063    4.5348244    1.5427793    1.5963135    1.5236043    4.6626971 
  249290   -293221.49         1200     1.473261      1.53995    1.5203276    4.5335387    1.5427845    1.6007049    1.5242599    4.6677493 
  249300    -293182.2         1200    1.4719437    1.5396424    1.5206722    4.5322584    1.5426186    1.6051742    1.5248765    4.6726693 
  249310   -293146.55         1200    1.4707071    1.5392408    1.5211557    4.5311036     1.542271    1.6096725    1.5255291    4.6774726 
  249320   -293115.63         1200    1.4695444    1.5387521    1.5218514    4.5301479    1.5417574    1.6141416    1.5263001    4.6821991 
  249330   -293083.57         1200    1.4684462    1.5381888    1.5225931     4.529228     1.541097    1.6185065    1.5272073    4.6868108 
  249340   -293053.57         1200    1.4674027    1.5375693    1.5236802    4.5286522    1.5403083    1.6226982    1.5282481    4.6912546 
  249350   -293030.62         1200    1.4664022    1.5369184    1.5249627    4.5282832    1.5394333    1.6266475    1.5294249    4.6955057 
  249360   -293020.32         1200    1.4654227    1.5362649    1.5261931    4.5278807    1.5385495    1.6302871    1.5307373    4.6995739 
  249370    -293019.2    1199.8697    1.4644498    1.5356197    1.5278058    4.5278753    1.5376673    1.6335685    1.5321677    4.7034035 
  249380   -293020.42    1200.0189    1.4634599    1.5349621       1.5293     4.527722    1.5367941    1.6364619     1.533657     4.706913 
  249390   -293026.24    1200.7903    1.4624459    1.5342826    1.5311564    4.5278849    1.5359546    1.6389079    1.5351445     4.710007 
  249400   -293033.22         1200    1.4614199    1.5335672    1.5328259     4.527813    1.5351312    1.6408462    1.5365597    4.7125371 
  249410   -293046.14         1200    1.4603952    1.5328386     1.534552    4.5277858    1.5342847     1.642282    1.5378383     4.714405 
  249420   -293054.29         1200    1.4593947    1.5321427    1.5366262    4.5281637    1.5333758    1.6432562    1.5389288    4.7155608 
  249430   -293046.64    1199.0172    1.4584492    1.5314975    1.5384795    4.5284262    1.5323904    1.6437675     1.539768    4.7159258 
  249440   -293030.01         1200    1.4575817    1.5308969    1.5406836    4.5291621    1.5312977    1.6438649    1.5403065    4.7154691 
  249450   -293004.75         1200    1.4568002    1.5303227    1.5426789    4.5298018    1.5300575     1.643606    1.5405392    4.7142027 
  249460   -292979.22         1200      1.45609    1.5297575     1.545036    4.5308835    1.5287087     1.643044    1.5404836    4.7122363 
  249470   -292952.39         1200    1.4554362    1.5291834    1.5471955    4.5318151    1.5273081    1.6422286    1.5401319    4.7096686 
  249480   -292924.45         1200    1.4548167     1.528581     1.549651    4.5330488    1.5259122    1.6412207    1.5394716    4.7066045 
  249490   -292900.16         1200    1.4542134    1.5279305     1.552126    4.5342699    1.5245536    1.6400867    1.5384981    4.7031384 
  249500   -292886.06         1200    1.4536261    1.5272235    1.5543762    4.5352258    1.5232396    1.6388832    1.5372183    4.6993411 
  249510   -292874.77         1200    1.4530818    1.5264725    1.5568021    4.5363563    1.5219754    1.6376448    1.5356529    4.6952732 
  249520   -292858.94         1200     1.452604    1.5256967    1.5589936    4.5372943    1.5207658    1.6363808    1.5338397    4.6909863 
  249530   -292853.51    1199.2732    1.4521974    1.5249101    1.5612125      4.53832    1.5196108    1.6350926    1.5318364    4.6865398 
  249540   -292866.36    1200.9412    1.4518581    1.5241361    1.5632975    4.5392917    1.5185158    1.6337961    1.5297508    4.6820626 
  249550   -292897.48         1200     1.451574    1.5233997    1.5651323     4.540106    1.5175207    1.6325209    1.5276955    4.6777371 
  249560   -292941.92         1200    1.4513488    1.5226949    1.5669396    4.5409833    1.5166634    1.6312915    1.5257191    4.6736741 
  249570    -292987.8         1200    1.4511668    1.5219927    1.5684974     4.541657    1.5160076    1.6301158    1.5238076     4.669931 
  249580    -293034.1         1200    1.4510042    1.5212663    1.5699792    4.5422497    1.5155818    1.6290218    1.5219523     4.666556 
  249590    -293089.4         1200    1.4508556    1.5205105    1.5717712    4.5431372    1.5153893    1.6280543    1.5201699    4.6636135 
  249600    -293157.7         1200    1.4507258    1.5197305    1.5729341    4.5433904    1.5154277    1.6272525    1.5185055    4.6611858 
  249610   -293227.42         1200    1.4506238    1.5189362    1.5739514    4.5435113    1.5156698     1.626625    1.5169914    4.6592862 
  249620    -293302.1         1200    1.4505479    1.5181452    1.5756436    4.5443367    1.5160788    1.6261662    1.5156345    4.6578794 
  249630   -293376.19         1200    1.4504898    1.5173806    1.5764307    4.5443011    1.5166107    1.6258693    1.5144207    4.6569007 
  249640   -293448.79         1200    1.4504446    1.5166584    1.5778245    4.5449275    1.5172216    1.6257312    1.5133363    4.6562891 
  249650   -293524.46         1200    1.4504155    1.5159881    1.5784502    4.5448538    1.5179005    1.6257368    1.5123548    4.6559921 
  249660   -293589.59         1200    1.4504105    1.5153814    1.5795692    4.5453612    1.5186851    1.6258401    1.5114335    4.6559587 
  249670   -293642.99         1200    1.4504077    1.5148434    1.5800149     4.545266    1.5196579    1.6259783    1.5105256    4.6561617 
  249680   -293675.47         1200    1.4503872    1.5143674    1.5808354      4.54559     1.520855    1.6260832     1.509586    4.6565242 
  249690   -293689.93         1200    1.4503436    1.5139253    1.5811167    4.5453857    1.5222693    1.6261124    1.5085974    4.6569791 
  249700   -293703.28         1200    1.4502678    1.5134861    1.5816952     4.545449    1.5238702    1.6260291    1.5075715    4.6574708 
  249710   -293721.61         1200     1.450157    1.5130422    1.5819306    4.5451298     1.525619    1.6258052    1.5065336    4.6579578 
  249720    -293739.4         1200    1.4500369     1.512607    1.5823291     4.544973    1.5274599    1.6254445    1.5055645    4.6584689 
  249730   -293753.79         1200    1.4499202    1.5121975    1.5825679    4.5446855    1.5293349    1.6249611    1.5047584    4.6590545 
  249740    -293770.3         1200    1.4498105    1.5118208    1.5827904    4.5444216     1.531169    1.6243539    1.5042165    4.6597394 
  249750   -293783.16         1200    1.4497254    1.5114654    1.5831212     4.544312    1.5329143    1.6235792    1.5039768    4.6604703 
  249760   -293789.55    1200.8523     1.449694    1.5111216    1.5834842    4.5442999    1.5345095    1.6225823    1.5040587    4.6611505 
  249770   -293787.78    1200.6151     1.449731     1.510796    1.5835401    4.5440671    1.5359376    1.6213342    1.5044945    4.6617663 
  249780   -293781.13    1199.7222     1.449845    1.5104801    1.5839629     4.544288    1.5371632    1.6198179    1.5052897    4.6622708 
  249790    -293769.4         1200    1.4500511    1.5101667    1.5838728    4.5440906    1.5381294    1.6180105    1.5064222    4.6625621 
  249800   -293744.78         1200    1.4503612    1.5098432    1.5843595    4.5445638    1.5388277    1.6158978    1.5078574     4.662583 
  249810   -293722.68         1200    1.4507711    1.5094882     1.584158    4.5444173    1.5392476     1.613482    1.5095799    4.6623095 
  249820   -293707.46         1200    1.4512703     1.509093     1.584624    4.5449874    1.5393615    1.6107837    1.5115751    4.6617203 
  249830   -293687.38         1200    1.4518335    1.5086451     1.585057    4.5455356    1.5391837    1.6078298    1.5137861    4.6607996 
  249840   -293659.05         1200    1.4524363    1.5081242    1.5847341    4.5452946    1.5387806    1.6046467    1.5161013    4.6595286 
  249850   -293629.45         1200    1.4530835    1.5075233    1.5850975    4.5457043    1.5382107    1.6012747    1.5184217    4.6579071 
  249860    -293607.2         1200    1.4537871    1.5068449    1.5847075    4.5453394    1.5375012    1.5977694    1.5206847    4.6559553 
  249870   -293582.65         1200    1.4545533    1.5060887    1.5850044    4.5456464    1.5366546    1.5941685    1.5228362    4.6536593 
  249880   -293555.11         1200    1.4553866     1.505255    1.5851135     4.545755    1.5356798    1.5905049    1.5248216    4.6510063 
  249890    -293522.1         1200    1.4562901    1.5043504     1.585284    4.5459244    1.5345951    1.5868168    1.5266312     4.648043 
  249900   -293469.48         1200    1.4572868    1.5033989    1.5853719    4.5460575    1.5333996    1.5831354    1.5283087    4.6448436 
  249910   -293408.86         1200    1.4583829    1.5024489    1.5856939    4.5465257    1.5320814     1.579507    1.5299011    4.6414896 
  249920   -293346.26         1200    1.4595578    1.5015068    1.5856907    4.5467552    1.5306101    1.5759553    1.5313518    4.6379172 
  249930   -293285.35         1200    1.4608002    1.5005635    1.5860721    4.5474358    1.5289668    1.5724883    1.5326086    4.6340637 
  249940   -293236.18         1200    1.4621152    1.4996168    1.5860359     4.547768    1.5271534     1.569123    1.5336575    4.6299339 
  249950   -293193.56         1200    1.4635086    1.4986687    1.5866161    4.5487933    1.5251803    1.5658718    1.5344706    4.6255226 
  249960   -293159.83         1200    1.4649853     1.497722    1.5865881    4.5492954    1.5230854     1.562753    1.5349918    4.6208302 
  249970   -293139.09         1200    1.4665494    1.4967736     1.586606    4.5499289     1.520935    1.5597829    1.5352123    4.6159302 
  249980   -293135.92    1199.6011    1.4681989     1.495813    1.5877145    4.5517263    1.5187766    1.5569547    1.5351815    4.6109129 
  249990   -293138.96    1199.9615    1.4699272    1.4948352    1.5878528    4.5526152    1.5166407    1.5542429    1.5349751    4.6058587 
  250000   -293148.67         1200    1.4717282    1.4938506    1.5890134    4.5545922    1.5145372    1.5516107    1.5346619    4.6008098 
Loop time of 10720.1 on 32 procs for 250000 steps with 2577 atoms

Performance: 0.403 ns/day, 59.556 hours/ns, 23.321 timesteps/s
100.0% CPU use with 32 MPI tasks x no OpenMP threads

MPI task timing breakdown:
Section |  min time  |  avg time  |  max time  |%varavg| %total
---------------------------------------------------------------
Pair    | 5340.2     | 7234.8     | 9446.2     |1603.9 | 67.49
Neigh   | 61.383     | 92.337     | 120.4      | 258.6 |  0.86
Comm    | 50.687     | 2015.2     | 3827.6     |2673.9 | 18.80
Output  | 46.307     | 46.349     | 46.413     |   0.3 |  0.43
Modify  | 1049       | 1107.6     | 1202.5     | 171.2 | 10.33
Other   |            | 223.7      |            |       |  2.09

Nlocal:    80.5312 ave 97 max 58 min
Histogram: 2 0 2 3 7 2 6 4 2 4
Nghost:    1828 ave 2286 max 1285 min
Histogram: 8 0 8 0 0 0 0 0 2 14
Neighs:    24417.7 ave 33011 max 14860 min
Histogram: 2 4 3 4 5 2 2 2 1 7

Total # of neighbors = 781366
Ave neighs/atom = 303.208
Neighbor list builds = 10913
Dangerous builds = 0

Please see the log.cite file for references relevant to this simulation

Total wall time: 2:58:40
