LAMMPS (7 Aug 2019)
Created orthogonal box = (0 0 0) to (18.5604 42.4 40)
  2 by 4 by 4 MPI processor grid
Reading data file ...
  orthogonal box = (0 0 -0.171776) to (18.5604 42.4 41.6292)
  2 by 4 by 4 MPI processor grid
  reading atoms ...
  2577 atoms
  reading velocities ...
  2577 velocities
  read_data CPU = 0.010946 secs
719 atoms in group boundary
1149 atoms in group Fe
1428 atoms in group O
312 atoms in group Feb
407 atoms in group Ob
Reading potential file ffield.reax.Fe_O_C_H with DATE: 2011-02-18
Neighbor list info ...
  update every 1 steps, delay 5 steps, check yes
  max neighbors/atom: 2000, page size: 100000
  master list distance cutoff = 10.3
  ghost atom cutoff = 10.3
  binsize = 5.15, bins = 4 9 9
  2 neighbor lists, perpetual/occasional/extra = 2 0 0
  (1) pair reax/c, perpetual
      attributes: half, newton off, ghost
      pair build: half/bin/newtoff/ghost
      stencil: half/ghost/bin/3d/newtoff
      bin: standard
  (2) fix qeq/reax, perpetual, copy from (1)
      attributes: half, newton off, ghost
      pair build: copy
      stencil: none
      bin: none
Setting up Verlet run ...
  Unit style    : real
  Current step  : 0
  Time step     : 0.2
Per MPI rank memory allocation (min/avg/max) = 36.41 | 45.46 | 53.73 Mbytes
Step PotEng c_T c_avesqdispFe1 c_avesqdispFe2 c_avesqdispFe3 c_avesqdispFe4 c_avesqdispO1 c_avesqdispO2 c_avesqdispO3 c_avesqdispO4 
       0   -294261.51          800            0            0            0            0            0            0            0            0 
      10   -294275.21          800 4.8324755e-05 5.304488e-05 5.008951e-05 0.00015145914 0.00016393252 0.00016266733 0.00017133126 0.0004979311 
      20   -294312.42          800 0.00019362867 0.00021307607 0.00020070929 0.00060741403 0.00064920396 0.00064900762 0.00068737252 0.0019855841 
      30    -294382.8          800 0.00043557042 0.00048054002 0.00045163285 0.0013677433 0.0014419212 0.0014542277 0.0015458826 0.0044420315 
      40   -294482.28          800 0.00077275501 0.00085435795 0.00081028175 0.0024373947  0.002523846 0.0025692926 0.0027375241 0.0078306627 
      50   -294604.68          800 0.0012030216 0.0013320151 0.0012566322 0.0037916688 0.0038743942 0.0039809456 0.0042456796  0.012101019 
      60   -294740.77          800 0.0017232927  0.001909665  0.001793704 0.0054266618 0.0054718731 0.0056701327 0.0060466534  0.017188659 
      70   -294890.76          800 0.0023300582 0.0025821009 0.0024173856 0.0073295446 0.0072951021 0.0076127924  0.008112345   0.02302024 
      80    -295038.3          800 0.0030197876 0.0033422017 0.0031155604 0.0094775496 0.0093212582 0.0097800463  0.010410741  0.029512046 
      90   -295184.28          800 0.0037894255 0.0041829889 0.0038722497  0.011844664  0.011528701  0.012142763  0.012910958  0.036582422 
     100      -295329          800 0.0046355894 0.0050972969 0.0047056804  0.014438567  0.013893769   0.01467445  0.015581773  0.044149992 
     110   -295463.89          800 0.0055555908 0.0060781757 0.0055984898  0.017232256  0.016394115  0.017351915  0.018391011  0.052137041 
     120   -295587.27          800 0.0065461851 0.0071191752 0.0065430395    0.0202084  0.019009258  0.020143025  0.021307957  0.060460239 
     130   -295706.29          800 0.0076035825 0.0082141204 0.0075404411  0.023358144  0.021717104  0.023014659  0.024302892  0.069034655 
     140   -295814.77          800 0.0087233173 0.0093566128 0.0085827391  0.026662669  0.024492346  0.025938154  0.027342036  0.077772536 
     150   -295910.04          800 0.0099007038  0.010540905 0.0097322657  0.030173874  0.027308344  0.028889508   0.03039338  0.086591232 
     160   -295989.43          800  0.011129686  0.011762949  0.010854426  0.033747061  0.030134917  0.031845184  0.033423082  0.095403183 
     170   -296063.68          800  0.012403955  0.013019878  0.012014204  0.037438037  0.032941317  0.034774622  0.036397113   0.10411305 
     180   -296129.39          800  0.013717277  0.014307307   0.01338269  0.041407274   0.03569788  0.037637961  0.039283916   0.11261976 
     190   -296177.75          800  0.015063207  0.015621182  0.014603753  0.045288142  0.038380908  0.040398057  0.042057205   0.12083617 
     200   -296210.59          800  0.016435228   0.01695841  0.015850654  0.049244291  0.040971594  0.043030618  0.044695257   0.12869747 
     210   -296229.98          800  0.017826694  0.018317063  0.017426997  0.053570754  0.043451616  0.045518648  0.047178577   0.13614884 
     220   -296242.78          800  0.019233028  0.019695502  0.018712769  0.057641299  0.045806244  0.047846961  0.049493369   0.14314657 
     230   -296255.25          800  0.020650135  0.021088441  0.019859942  0.061598518  0.048025751  0.050002421  0.051626304   0.14965448 
     240   -296279.22          800  0.022071574  0.022489592  0.021182044   0.06574321  0.050100566  0.051968929  0.053562847   0.15563234 
     250   -296321.48          800  0.023489431  0.023891907  0.022519741  0.069901079  0.052021281    0.0537306  0.055289997   0.16104188 
     260   -296362.02          800  0.024895049  0.025286811  0.023727778  0.073909638  0.053783349  0.055277504  0.056800358   0.16586121 
     270   -296384.66          800  0.026281754  0.026668196  0.025086173  0.078036122  0.055395119  0.056606879  0.058093612   0.17009561 
     280   -296396.47          800  0.027645699  0.028034198  0.026450932  0.082130829  0.056866337  0.057716744  0.059166202   0.17374928 
     290    -296399.4    800.36595  0.028984783  0.029386955  0.027732443  0.086104182  0.058193864  0.058605442  0.060012746   0.17681205 
     300   -296395.63    799.89936  0.030297794  0.030727874  0.029104808  0.090130476  0.059370451  0.059270742  0.060637586   0.17927878 
     310   -296391.52    799.39306  0.031584027  0.032052595  0.030475031  0.094111653  0.060391785  0.059708207  0.061053682   0.18115367 
     320   -296403.27     800.9616  0.032843264  0.033357481  0.031808999  0.098009744  0.061258982  0.059923573  0.061271852   0.18245441 
     330   -296418.73          800  0.034075813   0.03463952   0.03316729   0.10188262  0.061983097  0.059933274  0.061304662   0.18322103 
     340   -296424.79    800.75074  0.035281474  0.035890805  0.034500288   0.10567257  0.062579228  0.059760375  0.061170954   0.18351056 
     350   -296423.28    800.54034  0.036464387  0.037108628  0.035823225   0.10939624  0.063062359  0.059429472  0.060891999   0.18338383 
     360   -296415.64    799.52018  0.037625777  0.038290202  0.037122436   0.11303841  0.063441933  0.058970242  0.060478019   0.18289019 
     370   -296402.77          800  0.038764634  0.039430195  0.038394971    0.1165898  0.063729534  0.058418276  0.059934713   0.18208252 
     380   -296385.94          800  0.039879465  0.040525106  0.039639694   0.12004427  0.063936806  0.057809743  0.059273635   0.18102018 
     390   -296377.24          800  0.040966391   0.04157308  0.040852274   0.12339174  0.064069885  0.057176621  0.058512852   0.17975936 
     400   -296372.68    799.40057  0.042021892  0.042573498  0.042029799   0.12662519  0.064129216   0.05655299  0.057668771   0.17835098 
     410   -296369.78    799.01078  0.043041031    0.0435288   0.04316401   0.12973384  0.064110841  0.055975823  0.056753808   0.17684047 
     420   -296360.09          800  0.044023412  0.044439943  0.044252256   0.13271561  0.064014167  0.055466722  0.055793812    0.1752747 
     430   -296331.65          800  0.044972585   0.04530623   0.04535225   0.13563106  0.063842602  0.055030449  0.054831503   0.17370455 
     440   -296301.83          800  0.045887853  0.046127768  0.046361567   0.13837719  0.063600304  0.054671969  0.053912122   0.17218439 
     450   -296286.31          800  0.046769537  0.046905637  0.047326353   0.14100153  0.063295021  0.054394277   0.05307454   0.17076384 
     460   -296282.81    799.53416   0.04761809  0.047641702  0.048401881   0.14366167  0.062941221  0.054198791  0.052350128   0.16949014 
     470   -296277.89          800  0.048432494  0.048340209  0.049275197    0.1460479  0.062556779  0.054085637  0.051763813   0.16840623 
     480   -296262.48          800  0.049210989  0.049007399  0.050300397   0.14851879   0.06215608  0.054052656  0.051332598   0.16754133 
     490   -296244.27          800  0.049952635  0.049649859  0.051068886   0.15067138  0.061751168  0.054097186  0.051067482   0.16691584 
     500   -296229.32          800  0.050658525  0.050273392  0.051779155   0.15271107  0.061354302  0.054220192  0.050973603    0.1665481 
     510   -296203.63          800  0.051337315  0.050880357  0.052750035   0.15496771  0.060968739  0.054433133  0.051045121   0.16644699 
     520   -296183.96          800  0.052001093  0.051472081  0.053357369   0.15683054  0.060603082  0.054735475  0.051276305   0.16661486 
     530   -296166.45          800  0.052656948  0.052049506  0.053918305   0.15862476  0.060278597  0.055116085  0.051658655   0.16705334 
     540   -296149.19          800  0.053310085  0.052616026   0.05485449    0.1607806  0.060012798  0.055563938   0.05217381   0.16775055 
     550   -296130.83          800  0.053961211  0.053173459  0.055334424   0.16246909  0.059822144  0.056067174   0.05280143   0.16869075 
     560   -296113.62          800  0.054608627   0.05372424  0.055772072   0.16410494  0.059719896  0.056613464  0.053522895   0.16985625 
     570   -296094.56          800  0.055250782  0.054273343  0.056685837   0.16620996  0.059714242  0.057191189  0.054323493   0.17122892 
     580   -296087.03    799.01156  0.055884179  0.054827544  0.057055832   0.16776756  0.059810128  0.057790998  0.055195259   0.17279639 
     590   -296099.36    800.58817  0.056498287  0.055393076  0.057391539    0.1692829  0.060010099  0.058406549   0.05613309   0.17454974 
     600    -296128.2          800  0.057081414  0.055975007   0.05821499   0.17127141  0.060314534  0.059034781  0.057133454   0.17648277 
     610   -296148.77          800  0.057629842  0.056573267   0.05848206   0.17268517  0.060718848  0.059673424  0.058185898   0.17857817 
     620   -296157.92          800  0.058146418  0.057188114  0.058713603   0.17404814  0.061219827   0.06032625  0.059283406   0.18082948 
     630   -296169.54          800  0.058631079  0.057819692  0.059248356   0.17569913  0.061819084  0.060997987  0.060422466   0.18323954 
     640   -296181.54          800   0.05908687  0.058469526  0.059408995   0.17696539  0.062520451  0.061687689  0.061602203   0.18581034 
     650    -296190.5          800  0.059521471  0.059140549  0.059533726   0.17819575  0.063323877  0.062390429  0.062816879   0.18853118 
     660   -296180.97          800  0.059942969   0.05983606  0.059750141   0.17952917  0.064223956  0.063101783  0.064049452   0.19137519 
     670   -296174.69     799.1859  0.060356557  0.060558971  0.059806983   0.18072251  0.065211357  0.063816666  0.065279119   0.19430714 
     680   -296168.73          800  0.060763398  0.061305985  0.059833041   0.18190242  0.066270239   0.06452852  0.066492145    0.1972909 
     690   -296162.17    799.14864  0.061166668   0.06207094  0.060353225   0.18359083  0.067378594  0.065225194  0.067684477   0.20028827 
     700   -296153.61          800  0.061570266  0.062846255  0.060328238   0.18474476   0.06850177  0.065899233  0.068843983   0.20324498 
     710   -296150.58    799.62898  0.061973419  0.063628388  0.060791981   0.18639379  0.069603763  0.066551938  0.069956274   0.20611197 
     720   -296158.85    800.71204  0.062373738  0.064414902   0.06073615   0.18752479   0.07066066  0.067180024  0.071008814    0.2088495 
     730   -296170.32          800    0.0627707  0.065204226  0.060674654   0.18864958  0.071658073  0.067780716  0.071991095   0.21142988 
     740   -296166.15    799.44695  0.063162524  0.065988902  0.060903458   0.19005488  0.072591021  0.068355612  0.072891237   0.21383787 
     750   -296150.26          800   0.06354982   0.06676295   0.06085276   0.19116553  0.073460786  0.068906914  0.073695131   0.21606283 
     760   -296133.81          800  0.063936085  0.067521593  0.060813741   0.19227142  0.074277164  0.069431445  0.074384847   0.21809346 
     770   -296127.64    799.18976  0.064325327   0.06825922  0.060876919   0.19346147  0.075054588  0.069926406  0.074946498   0.21992749 
     780   -296135.85    800.27061  0.064718958  0.068970823  0.060870489   0.19456027  0.075812671  0.070383968  0.075370552   0.22156719 
     790   -296147.44          800  0.065113854  0.069657949  0.060879135   0.19565094  0.076569503  0.070795412  0.075652424   0.22301734 
     800   -296154.88    800.96114  0.065505046  0.070324875  0.060957737   0.19678766  0.077336398  0.071154139  0.075795437   0.22428597 
     810   -296153.87     800.8258  0.065891605  0.070975922  0.060993727   0.19786125  0.078121517  0.071455786   0.07580752   0.22538482 
     820   -296150.46     800.3991   0.06627407  0.071613715  0.061047747   0.19893553  0.078921699   0.07170081   0.07570077   0.22632328 
     830   -296147.82    800.03702  0.066652363  0.072242418  0.061072685   0.19996747  0.079721162  0.071896093  0.075490791   0.22710805 
     840   -296145.17    799.66369   0.06702779  0.072863519   0.06117351   0.20106482  0.080495049  0.072046246  0.075194444   0.22773574 
     850   -296136.63          800  0.067401629  0.073477283  0.061298914   0.20217783  0.081222466  0.072159759  0.074827469   0.22820969 
     860   -296133.39    799.56365  0.067771527  0.074080201   0.06124805   0.20309978  0.081886766  0.072250567  0.074396591   0.22853392 
     870   -296133.62    799.60286  0.068133548  0.074662269  0.061432164   0.20422798  0.082474567  0.072333291  0.073906492   0.22871435 
     880   -296143.04    800.82477    0.0684892  0.075219398  0.061647165   0.20535576  0.082982566  0.072420095  0.073365399   0.22876806 
     890   -296143.14    800.83892  0.068841535  0.075754531  0.061516828   0.20611289  0.083413285  0.072521062  0.072780636   0.22871498 
     900   -296133.13    799.54699  0.069187256  0.076273638   0.06178422   0.20724511  0.083778092  0.072643142  0.072154687   0.22857592 
     910   -296122.77          800  0.069521858  0.076783734  0.062060774   0.20836637  0.084090224  0.072788907  0.071487095   0.22836623 
     920   -296107.45          800  0.069843789  0.077292262    0.0617588   0.20889485  0.084375149  0.072957124  0.070785377   0.22811765 
     930   -296084.78          800  0.070153581  0.077804844  0.062030979    0.2099894  0.084649606  0.073143658  0.070051243   0.22784451 
     940   -296063.19          800   0.07045436  0.078322932  0.061660978   0.21043827  0.084917193  0.073347238  0.069279202   0.22754363 
     950   -296048.22          800  0.070749958  0.078846344  0.061906793   0.21150309  0.085174415  0.073572516  0.068472601   0.22721953 
     960   -296042.26    799.22196  0.071042937   0.07937707  0.062127653   0.21254766  0.085409977  0.073827784  0.067640544    0.2268783 
     970   -296040.49    799.01227  0.071335572  0.079914609  0.061799726   0.21304991  0.085602428   0.07411677  0.066791485   0.22651068 
     980   -296047.27    799.91564  0.071630478  0.080451466  0.061988461   0.21407041  0.085731605  0.074438484  0.065934387   0.22610448 
     990   -296057.19          800  0.071925066  0.080975073   0.06215884   0.21505898  0.085799379  0.074786853  0.065086297   0.22567253 
    1000   -296064.48    800.96088  0.072209454  0.081475858  0.061989471   0.21567478  0.085815581  0.075151965  0.064263159   0.22523071 
    1010   -296069.21          800  0.072476794  0.081951939   0.06213538   0.21656411  0.085784896  0.075524587  0.063472429   0.22478191 
    1020   -296066.86    799.74299  0.072726381  0.082401364  0.062262765   0.21739051  0.085710101  0.075904847  0.062724097   0.22433905 
    1030   -296049.44          800  0.072957364   0.08282243  0.062286282   0.21806608  0.085589487  0.076302396  0.062028807   0.22392069 
    1040    -296027.7          800  0.073167926  0.083221289  0.062373404   0.21876262  0.085420424  0.076726335  0.061394047   0.22354081 
    1050   -296017.61          800  0.073358789  0.083601908  0.062449314   0.21941001  0.085205093  0.077173217   0.06082576   0.22320407 
    1060   -296009.74    799.00396  0.073533864  0.083966069  0.062483148   0.21998308   0.08495294  0.077626219   0.06032791   0.22290707 
    1070    -296003.5          800  0.073700429  0.084321002  0.062490453   0.22051188  0.084678569  0.078063649  0.059905777   0.22264799 
    1080    -296001.3     799.7343  0.073867688  0.084673274  0.062483892   0.22102485  0.084392409  0.078465157  0.059567828   0.22242539 
    1090   -295999.09    799.46077  0.074039574  0.085022372  0.062449738   0.22151168  0.084101809  0.078811013  0.059320309   0.22223313 
    1100   -295999.52    799.50512    0.0742169    0.0853648  0.062403266   0.22198497  0.083813073  0.079086053  0.059162928   0.22206205 
    1110   -296003.88    800.06396  0.074398879  0.085692928  0.062347844   0.22243965  0.083535814  0.079290774  0.059094652   0.22192124 
    1120   -296014.33          800  0.074582985  0.085998595   0.06229134   0.22287292  0.083281484  0.079428746    0.0591198   0.22183003 
    1130   -296030.73          800  0.074766407  0.086282653  0.062221089   0.22327015  0.083053144  0.079497404   0.05923644   0.22178699 
    1140   -296051.19          800  0.074946071   0.08654002  0.062158818   0.22364491  0.082848618  0.079502366  0.059439999   0.22179098 
    1150   -296077.83          800  0.075117206  0.086764895  0.062086811   0.22396891  0.082672447  0.079449996  0.059730022   0.22185247 
    1160    -296101.5          800  0.075277365   0.08695779  0.061979722   0.22421488  0.082528036  0.079345389   0.06010564   0.22197906 
    1170   -296113.94          800   0.07542809   0.08712546   0.06187565    0.2244292  0.082397225  0.079200402  0.060558174    0.2221558 
    1180    -296115.1    800.12569   0.07557184   0.08727569  0.061750526   0.22459806  0.082271692  0.079029073  0.061072575   0.22237334 
    1190   -296115.22    800.14421  0.075709633  0.087414775   0.06158792   0.22471233  0.082154782  0.078844414  0.061634597   0.22263379 
    1200    -296126.9          800  0.075840794  0.087541912  0.061430334   0.22481304  0.082050634  0.078647336  0.062234199   0.22293217 
    1210   -296147.72          800  0.075966841  0.087654405  0.061263269   0.22488451  0.081966387  0.078432353  0.062866474   0.22326521 
    1220    -296175.4          800  0.076090645  0.087752537  0.061080877   0.22492406  0.081913222  0.078193932  0.063531934   0.22363909 
    1230   -296190.58          800  0.076214466  0.087835272  0.060902039   0.22495178  0.081895223  0.077937781  0.064229062   0.22406207 
    1240   -296193.46    800.35577  0.076343756  0.087901305  0.060718534    0.2249636  0.081909554  0.077676189  0.064947175   0.22453292 
    1250   -296199.32          800  0.076484651  0.087949112  0.060530715   0.22496448  0.081973048  0.077424049  0.065682393   0.22507949 
    1260    -296204.7    800.66122   0.07663972  0.087980232    0.0603479   0.22496785   0.08209988  0.077189261  0.066435587   0.22572473 
    1270    -296211.1          800   0.07680813   0.08799891  0.060165333   0.22497237  0.082289804  0.076975501  0.067208036   0.22647334 
    1280   -296217.46    800.81329  0.076984745  0.088005302  0.059975748    0.2249658  0.082543892  0.076780732  0.067998633   0.22732326 
    1290   -296232.26          800  0.077164476    0.0879978  0.059779048   0.22494132  0.082868176  0.076598799  0.068806563   0.22827354 
    1300   -296247.54          800  0.077342474   0.08797557   0.05958894   0.22490698  0.083269956  0.076424917  0.069628481   0.22932336 
    1310   -296260.11          800  0.077515953  0.087941412  0.059399686   0.22485705  0.083742902  0.076258417  0.070457238   0.23045856 
    1320   -296264.55    800.56734  0.077685444  0.087903257   0.05924534   0.22483404  0.084262599  0.076100438    0.0712814   0.23164444 
    1330   -296260.19    799.97877  0.077853854  0.087869869  0.059075917   0.22479964  0.084805481  0.075955617  0.072090497    0.2328516 
    1340   -296256.29    799.48093  0.078022649  0.087841717  0.058918866   0.22478323  0.085363235  0.075839572  0.072873182   0.23407599 
    1350   -296259.66    799.94262  0.078192401  0.087809935  0.058817082   0.22481942  0.085929538  0.075779193   0.07361483   0.23532356 
    1360   -296265.89    800.77666  0.078359287  0.087763795   0.05868929   0.22481237  0.086496956  0.075792303  0.074309581   0.23659884 
    1370   -296277.11          800  0.078514767  0.087699027  0.058581753   0.22479555  0.087053768  0.075878651  0.074957468   0.23788989 
    1380   -296294.56          800  0.078651578  0.087616146  0.058534705   0.22480243  0.087591004  0.076033752  0.075557002   0.23918176 
    1390   -296306.73          800  0.078768219  0.087517295  0.058469672   0.22475519  0.088107315  0.076257322  0.076105586   0.24047022 
    1400   -296311.07    800.61394  0.078865869  0.087400454  0.058460525   0.22472685  0.088601236  0.076541205  0.076601861    0.2417443 
    1410   -296309.56     800.4331  0.078944037  0.087259746  0.058437888   0.22464167  0.089076901  0.076873861  0.077050345   0.24300111 
    1420   -296310.03    800.50072  0.078997018  0.087096551  0.058431425   0.22452499  0.089537573  0.077246732  0.077451541   0.24423585 
    1430   -296310.16      800.545  0.079016442  0.086919588  0.058469186   0.22440522  0.089987237  0.077651677  0.077800571   0.24543949 
    1440   -296311.17    800.63358   0.07899966  0.086734575  0.058475003   0.22420924  0.090439563  0.078081937  0.078101778   0.24662328 
    1450   -296304.58    799.77585  0.078946629  0.086543861   0.05847393   0.22396442  0.090909002  0.078538514   0.07835602   0.24780354 
    1460   -296292.79          800  0.078856975  0.086348502  0.058406653   0.22361213  0.091403429  0.079023621  0.078560707   0.24898776 
    1470    -296278.6          800  0.078733006  0.086143501  0.058387947   0.22326445  0.091930275  0.079543931  0.078706961   0.25018117 
    1480   -296263.12          800  0.078575921  0.085925284   0.05835977   0.22286097  0.092490866  0.080104657  0.078781866   0.25137739 
    1490   -296244.36          800  0.078388667  0.085694681  0.058324581   0.22240793  0.093088267  0.080701865  0.078786229   0.25257636 
    1500   -296214.79          800  0.078178009  0.085451169  0.058282717    0.2219119  0.093728458  0.081318641  0.078733345   0.25378044 
    1510   -296175.82          800   0.07795115  0.085192976  0.058273356   0.22141748  0.094419851  0.081931866  0.078638866   0.25499058 
    1520   -296137.12          800  0.077714763  0.084916646  0.058215546   0.22084695  0.095162877  0.082522665  0.078513154    0.2561987 
    1530    -296105.4          800  0.077475319  0.084619268   0.05816613   0.22026072  0.095944538  0.083083316  0.078365668   0.25739352 
    1540   -296079.55          800  0.077236554  0.084304378   0.05807721   0.21961814  0.096738119  0.083608199  0.078205334   0.25855165 
    1550   -296052.94          800  0.077000598  0.083979252   0.05797935    0.2189592  0.097507552  0.084088351  0.078028857   0.25962476 
    1560   -296028.69          800  0.076769362  0.083645637  0.057892213   0.21830721  0.098219157  0.084521131  0.077834165   0.26057445 
    1570   -296017.68          800  0.076541547  0.083307071  0.057798972   0.21764759  0.098847212  0.084914001  0.077620237   0.26138145 
    1580   -296025.72          800  0.076313991  0.082969601  0.057712839   0.21699643  0.099373264  0.085278076  0.077381524   0.26203286 
    1590    -296045.6          800  0.076085346  0.082635536  0.057636451   0.21635733  0.099788799  0.085618889  0.077115444   0.26252313 
    1600   -296069.17          800  0.075856574  0.082307449  0.057570448   0.21573447   0.10008882   0.08593809  0.076830842   0.26285775 
    1610      -296096          800   0.07562621  0.081993291  0.057498858   0.21511836   0.10027135  0.086244981  0.076537671     0.263054 
    1620   -296131.01          800  0.075392055  0.081702589  0.057449713   0.21454436   0.10034311  0.086552043  0.076244782   0.26313994 
    1630   -296168.86          800  0.075154766  0.081441295  0.057404559   0.21400062   0.10031644  0.086861793  0.075964972   0.26314321 
    1640   -296201.67          800   0.07491792  0.081212989  0.057364645   0.21349555   0.10021179  0.087168031   0.07571066   0.26309048 
    1650   -296239.29          800  0.074687492  0.081018541  0.057317083   0.21302312   0.10006068  0.087464511  0.075486099   0.26301129 
    1660   -296272.39          800  0.074468218  0.080860226  0.057265634   0.21259408  0.099888907  0.087746113  0.075289229   0.26292425 
    1670   -296291.17          800  0.074263439  0.080742869  0.057305584   0.21231189   0.09971114  0.088001197   0.07511497   0.26282731 
    1680   -296313.68          800  0.074077016   0.08066506  0.057248599   0.21199068  0.099533541  0.088215453  0.074961054   0.26271005 
    1690   -296332.71          800  0.073914104   0.08061417  0.057197221    0.2117255  0.099357135   0.08837486  0.074839738   0.26257173 
    1700    -296331.3    799.81534  0.073777834  0.080579431  0.057298368   0.21165563  0.099185193  0.088469656  0.074764056    0.2624189 
    1710   -296317.76          800  0.073669002  0.080555145  0.057268899   0.21149305  0.099016439  0.088494213  0.074740867   0.26225152 
    1720   -296306.27          800  0.073586885  0.080539108  0.057255575   0.21138157  0.098845355   0.08844175   0.07477166   0.26205877 
    1730   -296293.41          800  0.073528779  0.080531038  0.057442577   0.21150239  0.098670368  0.088305551  0.074849285    0.2618252 
    1740   -296286.64    799.10673  0.073490284  0.080531156  0.057472147   0.21149359  0.098493751  0.088083697  0.074958333   0.26153578 
    1750   -296278.94          800  0.073467336  0.080539544  0.057526739   0.21153362  0.098320611  0.087776904  0.075079391   0.26117691 
    1760   -296263.05          800  0.073456406  0.080554823  0.057757934   0.21176916  0.098157275  0.087392968  0.075193479   0.26074372 
    1770    -296242.6          800  0.073449693   0.08057579  0.057850338   0.21187582  0.098009932  0.086954275  0.075276876   0.26024108 
    1780   -296226.98          800  0.073441934  0.080600237   0.05805384   0.21209601  0.097879569  0.086482707  0.075308215   0.25967049 
    1790   -296220.47    799.13253  0.073431374  0.080622006  0.058155568   0.21220895  0.097764097  0.085993278  0.075277438   0.25903481 
    1800   -296220.99    799.18742  0.073418187  0.080635144  0.058263369    0.2123167  0.097649855  0.085501873  0.075183574    0.2583353 
    1810   -296216.72          800  0.073401182  0.080634537  0.058379108   0.21241483  0.097516507  0.085020377  0.075032302   0.25756919 
    1820   -296211.44     799.2756   0.07337585  0.080616024  0.058525305   0.21251718  0.097349112  0.084554352  0.074837924   0.25674139 
    1830   -296213.79    799.55606  0.073340488   0.08057382  0.058663638   0.21257795  0.097144075  0.084102717  0.074630802   0.25587759 
    1840   -296228.54          800  0.073297297  0.080505714  0.058814505   0.21261752  0.096897417  0.083671771  0.074437206   0.25500639 
    1850   -296253.59          800  0.073247243  0.080418056  0.058934905    0.2126002  0.096605329  0.083271723  0.074268876   0.25414593 
    1860   -296274.26          800  0.073189536  0.080316695  0.059114004   0.21262024   0.09626848  0.082911105  0.074134909   0.25331449 
    1870   -296282.51          800  0.073120686  0.080195495  0.059301653   0.21261783  0.095893493  0.082600969  0.074044818   0.25253928 
    1880   -296272.11          800   0.07303775  0.080046508  0.059422226   0.21250648  0.095496167  0.082352825  0.074006362   0.25185535 
    1890   -296247.94          800  0.072940366  0.079860894  0.059617566   0.21241883   0.09509385  0.082179385  0.074028026   0.25130126 
    1900   -296228.88          800   0.07282491  0.079634557  0.059816415   0.21227588  0.094698638  0.082089481  0.074119214   0.25090733 
    1910   -296220.19          800  0.072687253  0.079368766  0.059920794   0.21197681  0.094313742  0.082087927  0.074287864   0.25068953 
    1920   -296207.63          800  0.072526424  0.079065801  0.060129498   0.21172172  0.093937016  0.082179984  0.074542156   0.25065916 
    1930   -296176.74          800  0.072345347  0.078726537   0.06034705   0.21141893  0.093566616  0.082365439  0.074890573   0.25082263 
    1940   -296128.67          800  0.072143689  0.078360896  0.060415073   0.21091966  0.093195326  0.082638874  0.075322245   0.25115645 
    1950   -296094.03          800  0.071920356  0.077984185   0.06063706    0.2105416  0.092805367  0.082998088  0.075806094   0.25160955 
    1960   -296083.82          800  0.071682776   0.07760284  0.060848074   0.21013369  0.092382396  0.083444067  0.076319638    0.2521461 
    1970   -296079.49     799.4536  0.071435815  0.077223764  0.060900466   0.20956004  0.091920574  0.083977121  0.076841594   0.25273929 
    1980   -296073.44          800  0.071180168  0.076855268  0.061079908   0.20911534  0.091420241  0.084595316  0.077352277   0.25336783 
    1990   -296071.52    799.71417  0.070920114  0.076501747  0.061241084   0.20866294  0.090883309  0.085294638  0.077841717   0.25401966 
    2000   -296071.58    799.72898  0.070662185  0.076167209  0.061300774   0.20813017  0.090323281  0.086059902  0.078308494   0.25469168 
    2010   -296072.28    799.79432  0.070411666  0.075852977  0.061445395   0.20771004  0.089764052  0.086864898  0.078758104   0.25538705 
    2020    -296083.9          800  0.070164696  0.075564467  0.061545121   0.20727428  0.089220777  0.087686417  0.079191496   0.25609869 
    2030   -296109.74          800  0.069914909  0.075312603  0.061687478   0.20691499  0.088694088  0.088503365  0.079601507   0.25679896 
    2040   -296142.04          800   0.06965888  0.075104454  0.061822524   0.20658586  0.088186748  0.089291973   0.07998382   0.25746254 
    2050   -296176.73          800  0.069391718  0.074940318  0.061934662    0.2062667  0.087708644  0.090029804  0.080342914   0.25808136 
    2060   -296195.51          800  0.069110273  0.074822479  0.062053656   0.20598641  0.087266281  0.090698759  0.080686199   0.25865124 
    2070   -296210.91          800  0.068812295  0.074753295  0.062169684   0.20573527  0.086864087  0.091287698  0.081023154   0.25917494 
    2080   -296223.89          800  0.068499346  0.074731789  0.062290744   0.20552188  0.086509433  0.091784097  0.081361825   0.25965536 
    2090   -296227.01     800.3832  0.068179522  0.074754722   0.06241657   0.20535081  0.086209852  0.092175403  0.081707915   0.26009317 
    2100   -296223.58    799.90362  0.067863651  0.074820216  0.062547138   0.20523101  0.085970049  0.092458355  0.082058688   0.26048709 
    2110   -296216.73          800  0.067564277  0.074926925  0.062682335   0.20517354  0.085792502  0.092634815  0.082416471   0.26084379 
    2120   -296217.09    800.04447  0.067289752  0.075071904  0.062821836   0.20518349  0.085681172   0.09270829  0.082788762   0.26117822 
    2130   -296226.46          800  0.067042755   0.07524967  0.062963036   0.20525546  0.085637702  0.092685623  0.083174035   0.26149736 
    2140   -296237.72          800  0.066823958  0.075454946  0.063104249   0.20538315  0.085656476  0.092577925  0.083568868   0.26180327 
    2150   -296234.87    799.62232   0.06662793  0.075685196  0.063241562   0.20555469  0.085728482  0.092402458  0.083969594   0.26210053 
    2160   -296220.44          800  0.066447627  0.075933545  0.063369981   0.20575115  0.085848476  0.092175894  0.084371674   0.26239604 
    2170   -296207.52          800  0.066281574  0.076187759  0.063490043   0.20595938  0.086013721  0.091912244  0.084769139    0.2626951 
    2180   -296194.18          800  0.066128863  0.076440844  0.063608255   0.20617796  0.086217922  0.091631461  0.085146624   0.26299601 
    2190   -296179.01          800  0.065987918  0.076689607  0.063719997   0.20639752   0.08645865   0.09135525  0.085487939   0.26330184 
    2200   -296167.06          800  0.065860505  0.076931534  0.063830881   0.20662292  0.086740614  0.091100553  0.085779993   0.26362116 
    2210   -296155.52          800  0.065752981   0.07716518  0.063949434    0.2068676  0.087063669  0.090883037  0.086009628   0.26395633 
    2220   -296150.96    799.43402  0.065671944  0.077390099  0.064061925   0.20712397  0.087418847  0.090719129  0.086165136   0.26430311 
    2230   -296152.31    799.65297  0.065625531  0.077599614  0.064176247   0.20740139  0.087789793  0.090614761  0.086246358   0.26465091 
    2240   -296154.78    799.98771  0.065619212   0.07778785  0.064305867   0.20771293  0.088153925  0.090567466  0.086258274   0.26497967 
    2250   -296162.96          800  0.065653668  0.077954503  0.064433564   0.20804173  0.088487857   0.09057324  0.086205327   0.26526642 
    2260   -296161.11    799.81339  0.065728175  0.078101092  0.064586719   0.20841599  0.088777622  0.090617403  0.086091195   0.26548622 
    2270   -296152.59          800  0.065840455  0.078229343   0.06472053   0.20879033  0.089016698  0.090683602  0.085915214   0.26561551 
    2280   -296150.51    799.74804  0.065986972   0.07833837   0.06485226    0.2091776  0.089202079  0.090766808  0.085681339   0.26565023 
    2290   -296156.56    800.53112   0.06616186  0.078427353  0.064956442   0.20954565  0.089330514  0.090862264  0.085400046   0.26559282 
    2300   -296163.71          800  0.066358159  0.078498863  0.065082142   0.20993916  0.089397731  0.090966962   0.08507963   0.26544432 
    2310   -296171.87          800  0.066568264  0.078557649  0.065204793   0.21033071  0.089402764   0.09107862  0.084730779   0.26521216 
    2320   -296173.54    800.20193  0.066787026  0.078602315  0.065311888   0.21070123  0.089346187  0.091184554  0.084369431   0.26490017 
    2330   -296163.44          800  0.067012244  0.078627303  0.065406749    0.2110463  0.089223982  0.091275781   0.08400131   0.26450107 
    2340   -296156.45    799.08876  0.067242961  0.078628323  0.065534602   0.21140589  0.089042086  0.091349478  0.083623551   0.26401511 
    2350   -296157.33    799.19417  0.067477069  0.078605039  0.065602062   0.21168417   0.08881481  0.091399898  0.083229669   0.26344438 
    2360   -296161.81    799.73738  0.067712139  0.078559215  0.065664407   0.21193576  0.088547932  0.091413545  0.082827571   0.26278905 
    2370   -296158.26      799.284  0.067949618  0.078492826  0.065880791   0.21232323  0.088239372  0.091367632   0.08244889   0.26205589 
    2380   -296140.18          800  0.068194673  0.078408784  0.065949402   0.21255286  0.087884939  0.091243425  0.082124476   0.26125284 
    2390   -296115.65          800  0.068450189   0.07830854  0.066028184   0.21278691  0.087476729  0.091016451  0.081873049   0.26036623 
    2400   -296088.92          800  0.068710487  0.078192542  0.066414333   0.21331736   0.08702487  0.090667146  0.081709774   0.25940179 
    2410   -296067.37          800   0.06896787  0.078062744  0.066524214   0.21355483  0.086540602  0.090194055  0.081640706   0.25837536 
    2420   -296049.76          800  0.069212977  0.077917257  0.067176082   0.21430632  0.086029584  0.089610934  0.081660545   0.25730106 
    2430   -296041.32          800  0.069435973  0.077752501  0.067325084   0.21451356  0.085503008  0.088935389  0.081756356   0.25619475 
    2440    -296038.3    799.59896  0.069630071  0.077569165  0.067487689   0.21468692  0.084978515  0.088188646  0.081906694   0.25507385 
    2450    -296039.7    799.78797  0.069789526  0.077372316   0.06791446    0.2150763  0.084477011  0.087403322  0.082083655   0.25396399 
    2460   -296051.48          800  0.069911262  0.077165755  0.068076205   0.21515322  0.084019049  0.086608135  0.082262263   0.25288945 
    2470   -296073.22          800  0.069994475  0.076953663  0.068226677   0.21517481  0.083617877  0.085826197  0.082426718   0.25187079 
    2480   -296093.79          800  0.070035368  0.076748362  0.068643946   0.21542768  0.083273292  0.085073378   0.08256649   0.25091316 
    2490   -296107.42          800  0.070028782  0.076563846  0.068777521   0.21537015  0.082973845  0.084364949  0.082669861   0.25000865 
    2500   -296120.69          800  0.069977159  0.076402997  0.068908153   0.21528831  0.082712494  0.083717017  0.082727921   0.24915743 
    2510   -296125.72    800.66468  0.069886699  0.076262144  0.069243933   0.21539278  0.082485936  0.083130723  0.082739051   0.24835571 
    2520   -296133.04          800  0.069761248  0.076138583  0.069392927   0.21529276  0.082288717  0.082620812  0.082706289   0.24761582 
    2530    -296144.5          800  0.069602207  0.076028773   0.06955876   0.21518974   0.08211777  0.082206179  0.082635414   0.24695936 
    2540   -296157.85          800  0.069410849  0.075927466  0.069849129   0.21518744  0.081976164  0.081888797  0.082540969   0.24640593 
    2550   -296160.97    800.39414  0.069189267  0.075830647  0.070054261   0.21507417  0.081869009  0.081668792  0.082445199     0.245983 
    2560    -296159.8    800.25035  0.068941512  0.075740465  0.070274373   0.21495635  0.081793519   0.08155633  0.082367605   0.24571745 
    2570   -296158.42    800.06336  0.068676929  0.075662078  0.070639561   0.21497857  0.081746122  0.081562829  0.082324483   0.24563343 
    2580   -296148.86          800  0.068404003  0.075598008  0.070854045   0.21485606  0.081724299  0.081694085  0.082318341   0.24573672 
    2590   -296131.64          800  0.068130703  0.075548131   0.07105078   0.21472961   0.08171082  0.081944564  0.082331008   0.24598639 
    2600   -296113.82          800  0.067857603  0.075511526  0.071250702   0.21461983  0.081682514   0.08229989  0.082341879   0.24632428 
    2610   -296098.23          800  0.067579957  0.075480335  0.071398444   0.21445874  0.081622247  0.082753129  0.082348824    0.2467242 
    2620   -296096.05    799.70986  0.067293432  0.075447275  0.071322265   0.21406297  0.081520267  0.083291418  0.082346927   0.24715861 
    2630   -296098.68    800.04514  0.066996917  0.075411807  0.071446584   0.21385531  0.081371333  0.083894431  0.082328004   0.24759377 
    2640   -296095.66     799.6495  0.066692173  0.075375569  0.071574843   0.21364258  0.081177918  0.084547468  0.082285048   0.24801043 
    2650    -296090.1          800  0.066383839   0.07533699  0.071397866   0.21311869  0.080954039  0.085245937  0.082206766   0.24840674 
    2660   -296093.48    800.42801  0.066070609  0.075292866  0.071543983   0.21290746  0.080720551  0.085984398  0.082088948    0.2487939 
    2670   -296104.14          800  0.065751131  0.075238963  0.071696135   0.21268623  0.080497584  0.086743074  0.081939458   0.24918012 
    2680   -296121.32          800   0.06543251  0.075172472  0.071730461   0.21233544  0.080294174  0.087506061  0.081764303   0.24956454 
    2690   -296141.84          800  0.065122978  0.075093638  0.071870421   0.21208704   0.08011894  0.088272457   0.08156521   0.24995661 
    2700   -296159.15          800   0.06482777  0.075003679  0.071973306   0.21180475  0.079979522  0.089052701  0.081340333   0.25037256 
    2710   -296174.78          800  0.064549701   0.07490072  0.072024105   0.21147453  0.079877199   0.08984959  0.081087651   0.25081444 
    2720   -296202.93          800  0.064292206  0.074780749  0.072023517   0.21109647   0.07981198  0.090660635  0.080808954   0.25128157 
    2730   -296238.47          800  0.064061067  0.074641839  0.071974146   0.21067705  0.079782726  0.091477009  0.080518177   0.25177791 
    2740   -296255.86          800   0.06385813  0.074490152   0.07191164   0.21025992  0.079785939  0.092297986  0.080226371    0.2523103 
    2750    -296258.6    800.36076  0.063674293  0.074338454   0.07177278   0.20978553  0.079819905  0.093123585  0.079937568   0.25288106 
    2760   -296254.58    799.83473  0.063500357  0.074195119  0.071609499   0.20930498  0.079888391  0.093934343  0.079662559   0.25348529 
    2770   -296254.32    799.78451  0.063331268  0.074065494  0.071523304   0.20892007  0.079995374  0.094711501  0.079420463   0.25412734 
    2780   -296257.03    800.13008  0.063164761  0.073958541  0.071356622   0.20847992  0.080139721  0.095441366  0.079233524   0.25481461 
    2790   -296257.02    800.14267  0.062999443  0.073880779  0.071278244   0.20815847  0.080317002  0.096112291  0.079121709     0.255551 
    2800   -296266.25          800  0.062833142  0.073833794  0.071131349   0.20779829  0.080522631  0.096712384  0.079099803   0.25633482 
    2810   -296270.93    800.61897  0.062664376  0.073817816  0.070990078   0.20747227  0.080751435  0.097237591  0.079175878    0.2571649 
    2820   -296262.58    799.51816  0.062492786  0.073831475   0.07088613   0.20721039  0.080995831  0.097692287  0.079352233   0.25804035 
    2830   -296237.88          800  0.062320364  0.073871315  0.070734695   0.20692637  0.081239192  0.098065327  0.079627439   0.25893196 
    2840   -296212.46          800  0.062149509  0.073939069  0.070566887   0.20665546  0.081460354   0.09833693  0.079992545   0.25978983 
    2850   -296209.53    799.58639  0.061980792  0.074038974   0.07049379   0.20651356  0.081646376   0.09848449  0.080435783   0.26056665 
    2860   -296222.77          800  0.061814921  0.074173425  0.070279076   0.20626742  0.081790951  0.098485597  0.080949214   0.26122576 
    2870    -296241.3          800  0.061652006  0.074342032   0.07004674   0.20604078  0.081892996  0.098316608  0.081531354   0.26174096 
    2880   -296259.94          800  0.061491563  0.074539802  0.069976248   0.20600761  0.081958504  0.097967981  0.082184928   0.26211141 
    2890   -296277.69          800   0.06133073  0.074760038  0.069748156   0.20583892  0.082001181  0.097442739  0.082906286   0.26235021 
    2900   -296292.98          800  0.061167124   0.07500142  0.069538213   0.20570676  0.082038866  0.096763913   0.08367732    0.2624801 
    2910   -296303.41          800  0.061000632  0.075265217  0.069510143   0.20577599  0.082085275  0.095976259  0.084474674   0.26253621 
    2920   -296316.09          800  0.060828458  0.075549975  0.069335545   0.20571398  0.082153553  0.095125066  0.085276107   0.26255473 
    2930   -296325.12          800  0.060650733  0.075852719   0.06917545    0.2056789  0.082249155  0.094241944  0.086061949   0.26255305 
    2940   -296331.47    800.82741  0.060471707  0.076173614  0.069190965   0.20583629  0.082361776  0.093350223  0.086809344   0.26252134 
    2950   -296331.87    800.89585  0.060296163   0.07651569  0.069037957   0.20584981  0.082471631  0.092468204  0.087494628   0.26243446 
    2960   -296338.32          800  0.060129298  0.076878165  0.069013006   0.20602047  0.082561649  0.091610888  0.088104047   0.26227658 
    2970   -296336.36    799.75636  0.059977317  0.077252856  0.068857443   0.20608762  0.082623096  0.090788705  0.088630318   0.26204212 
    2980   -296322.47          800  0.059843486  0.077633342  0.068699435   0.20617626  0.082656423  0.090017387  0.089061895    0.2617357 
    2990   -296304.33          800  0.059723465  0.078017069  0.068607629   0.20634816  0.082674292   0.08931919  0.089391687   0.26138517 
    3000   -296293.91          800  0.059612185  0.078395724  0.068459876   0.20646778  0.082694705   0.08870825  0.089623011   0.26102597 
    3010   -296297.43    800.47455  0.059510444  0.078761385  0.068328127   0.20659996  0.082722129   0.08818194  0.089760138   0.26066421 
    3020   -296300.52    800.89364  0.059419003  0.079116171  0.068440371   0.20697554  0.082749797  0.087728431  0.089809854   0.26028808 
    3030   -296295.72     800.2633  0.059337957  0.079460279  0.068352538   0.20715077  0.082779558  0.087334441  0.089780824   0.25989482 
    3040   -296279.26          800  0.059268356   0.07979305  0.068285614   0.20734702  0.082819504  0.086983172  0.089672005   0.25947468 
    3050   -296257.22          800   0.05921177  0.080114493  0.068350922   0.20767719  0.082874682  0.086656963  0.089472478   0.25900412 
    3060    -296236.6          800  0.059169028  0.080424202  0.068303572    0.2078968  0.082948221  0.086338186  0.089171344   0.25845775 
    3070   -296224.02          800  0.059141451  0.080720825  0.068257918   0.20812019  0.083039067  0.086022163  0.088765119   0.25782635 
    3080   -296221.27     799.6292  0.059131194  0.081002059  0.068363987   0.20849724  0.083144752  0.085726612  0.088258096   0.25712946 
    3090      -296227    800.37034  0.059139145  0.081265432  0.068330875   0.20873545  0.083262501  0.085471484  0.087660774   0.25639476 
    3100   -296242.85          800  0.059165394  0.081508904  0.068481203    0.2091555  0.083383643  0.085271806  0.086990579   0.25564603 
    3110   -296262.92          800  0.059207613  0.081727716  0.068473858   0.20940919  0.083511811  0.085132959  0.086267901   0.25491267 
    3120   -296270.84          800  0.059262552  0.081916686  0.068480586   0.20965982  0.083658807  0.085053812  0.085519843   0.25423246 
    3130   -296264.39    799.18788  0.059327084  0.082072669  0.068689514   0.21008927  0.083830309  0.085033022  0.084786087   0.25364942 
    3140   -296248.29          800  0.059397947  0.082195591   0.06873863   0.21033217  0.084023947  0.085075214  0.084101883   0.25320104 
    3150    -296229.6          800  0.059474519  0.082287752  0.068806896   0.21056917  0.084230383  0.085186302  0.083489014    0.2529057 
    3160   -296220.18          800  0.059559928  0.082350667  0.069141554   0.21105215  0.084439943  0.085362643  0.082958126   0.25276071 
    3170   -296219.23    799.86737  0.059657963  0.082383604   0.06923559   0.21127716  0.084644916  0.085598996  0.082508596   0.25275251 
    3180   -296224.03    800.46757  0.059770015  0.082383299  0.069332989    0.2114863  0.084840537  0.085886808  0.082129414   0.25285676 
    3190   -296226.86    800.80347  0.059897213  0.082347598  0.069321249   0.21156606  0.085031931  0.086218361  0.081801682   0.25305197 
    3200   -296228.78          800  0.060039082  0.082278957  0.069406065    0.2117241  0.085222433  0.086586001  0.081508481   0.25331691 
    3210   -296233.45    800.60449  0.060193228  0.082186156  0.069485901   0.21186528  0.085395875  0.086990476   0.08123681   0.25362316 
    3220   -296231.57    800.31536  0.060355044  0.082077111  0.069553334   0.21198549  0.085538602  0.087431838  0.080967079   0.25393752 
    3230    -296221.8    799.04945  0.060519694  0.081957079  0.069645657   0.21212243  0.085641536  0.087904333   0.08068503    0.2542309 
    3240    -296220.6          800  0.060686629  0.081829992  0.069753251   0.21226987  0.085693579  0.088397732  0.080391691     0.254483 
    3250   -296224.56    800.51661  0.060858436  0.081699008  0.070005185   0.21256263  0.085689049  0.088894362  0.080097321   0.25468073 
    3260    -296217.5    799.59126  0.061038974  0.081566979  0.070143838   0.21274979  0.085628889  0.089373119  0.079816828   0.25481884 
    3270   -296206.99          800  0.061231484   0.08143641  0.070296334   0.21296423  0.085514241  0.089826613  0.079565402   0.25490626 
    3280   -296200.19    799.07692  0.061437373  0.081307437  0.070605447   0.21335026  0.085343959  0.090243822  0.079363567   0.25495135 
    3290   -296190.72          800  0.061654113  0.081178976  0.070775465   0.21360855  0.085116671  0.090619318  0.079226136   0.25496212 
    3300   -296186.04    799.38636  0.061877414  0.081049236   0.07094441   0.21387106   0.08484237  0.090953265  0.079155758   0.25495139 
    3310   -296195.47     800.6193  0.062104227  0.080916228  0.071243996   0.21426445  0.084544093   0.09124578  0.079151731    0.2549416 
    3320    -296223.1          800  0.062333556  0.080778675  0.071408379   0.21452061  0.084247545  0.091502839   0.07920766   0.25495804 
    3330    -296253.7          800   0.06256587  0.080638326  0.071570378   0.21477457  0.083973151  0.091733073  0.079307841   0.25501406 
    3340   -296267.44          800  0.062800021  0.080497585  0.071863031   0.21516064   0.08373538  0.091949389   0.07943064   0.25511541 
    3350   -296267.39    800.01537   0.06303346  0.080357936  0.072019561   0.21541096  0.083552588  0.092162819  0.079564285   0.25527969 
    3360   -296268.38    800.12423  0.063265066  0.080219225  0.072174263   0.21565855  0.083446649   0.09237629  0.079713628   0.25553657 
    3370   -296282.44          800  0.063493815  0.080084329  0.072102353    0.2156805  0.083433541  0.092589551  0.079879715   0.25590281 
    3380   -296303.03          800  0.063718786  0.079958681  0.072243525   0.21592099  0.083524343  0.092799647   0.08005533   0.25637932 
    3390   -296316.99          800  0.063942923   0.07984502  0.072375018   0.21616296  0.083727247  0.093003227  0.080232367   0.25696284 
    3400   -296331.04          800  0.064170531  0.079741411  0.072081704   0.21599365  0.084048229  0.093198482  0.080408429   0.25765514 
    3410   -296337.31     800.7976  0.064403745  0.079644088  0.072188497   0.21623633  0.084493268  0.093377247  0.080575699   0.25844621 
    3420    -296324.3    799.09848  0.064643766  0.079552492  0.072193977   0.21639023  0.085061146  0.093528537  0.080717377   0.25930706 
    3430   -296306.49          800  0.064891288   0.07946837  0.072253527   0.21661318  0.085737499  0.093645628  0.080817191   0.26020032 
    3440   -296292.26          800  0.065149782  0.079393419  0.072292315   0.21683552  0.086500895  0.093722266  0.080861433   0.26108459 
    3450   -296276.45          800  0.065424078  0.079332385  0.072392461   0.21714892  0.087321004  0.093764548  0.080836691   0.26192224 
    3460   -296257.64          800  0.065716682  0.079298398  0.072397742   0.21741282  0.088157879  0.093785578  0.080725817   0.26266927 
    3470    -296241.2          800  0.066027717  0.079296528  0.072396434   0.21772068  0.088988157  0.093785066   0.08051956   0.26329278 
    3480   -296222.76          800  0.066352208  0.079328774  0.072353443   0.21803443  0.089794716   0.09376391  0.080219343   0.26377797 
    3490   -296199.35          800  0.066683884  0.079398065  0.072379929   0.21846188   0.09055719  0.093727078  0.079830109   0.26411438 
    3500   -296172.01          800  0.067018761  0.079504679  0.072434828   0.21895827  0.091260412  0.093674523  0.079362577   0.26429751 
    3510   -296146.25          800  0.067353467  0.079644557  0.071984213   0.21898224  0.091897265  0.093603407  0.078838685   0.26433936 
    3520   -296129.34          800  0.067685598  0.079808546  0.072096236   0.21959038  0.092465025  0.093508625  0.078287144   0.26426079 
    3530   -296125.38     799.4933  0.068016069  0.079984557  0.071734633   0.21973526  0.092969459  0.093379269  0.077736372    0.2640851 
    3540   -296118.85          800   0.06834651  0.080169026  0.071897604   0.22041314  0.093409703  0.093204812  0.077206633   0.26382115 
    3550   -296107.24          800   0.06868209  0.080362452  0.072070649   0.22111519  0.093790786  0.092973457  0.076710562    0.2634748 
    3560   -296106.74    799.90794  0.069027739  0.080565118   0.07180138   0.22139424  0.094124076  0.092679865  0.076261272   0.26306521 
    3570   -296110.89    800.43014  0.069385816  0.080775196  0.071969353   0.22213036  0.094419346  0.092328511  0.075873283   0.26262114 
    3580   -296120.96          800  0.069759049  0.080990199  0.071809614   0.22255886  0.094683934  0.091922752  0.075556589   0.26216328 
    3590   -296137.31          800  0.070149572  0.081204667  0.071958872   0.22331311  0.094928972  0.091469281  0.075320014   0.26171827 
    3600   -296143.43    800.80956  0.070556816  0.081410101  0.072101842   0.22406876    0.0951698  0.090982507  0.075172142   0.26132445 
    3610   -296139.39    800.31649  0.070980574  0.081598469  0.072063191   0.22464223  0.095421049  0.090471381  0.075119991   0.26101242 
    3620   -296136.68    800.00482  0.071419207  0.081764005  0.072192853   0.22537607  0.095693694  0.089944575  0.075168682   0.26080695 
    3630   -296139.92    800.45662  0.071869145  0.081903594  0.072265015   0.22603775  0.095996362   0.08941543  0.075320853   0.26073265 
    3640   -296145.81          800  0.072326052  0.082025072  0.072369663   0.22672079  0.096331022  0.088895581  0.075568003   0.26079461 
    3650   -296153.06    800.94531  0.072783249  0.082141307  0.072450116   0.22737467  0.096696129   0.08839279  0.075889906   0.26097883 
    3660   -296156.59          800  0.073236616  0.082255909  0.072453228   0.22794575  0.097098373  0.087910646  0.076270799   0.26127982 
    3670   -296153.62     799.6406  0.073687842  0.082364393  0.072474964    0.2285272  0.097533405  0.087455092  0.076692102    0.2616806 
    3680   -296151.15    799.34434  0.074139875  0.082463097   0.07246349   0.22906646  0.097989192  0.087029904   0.07713327   0.26215237 
    3690   -296151.31    799.39386  0.074592666  0.082550354   0.07243224   0.22957526  0.098452042  0.086635757  0.077570755   0.26265855 
    3700   -296149.74     799.2033  0.075046322  0.082620562  0.072355814    0.2300227  0.098913846  0.086277887  0.077990381   0.26318211 
    3710    -296158.1    800.27817  0.075501182  0.082670875  0.072254082   0.23042614  0.099373022  0.085960368  0.078391535   0.26372493 
    3720   -296168.77          800  0.075956642  0.082704772  0.072165996   0.23082741  0.099825066  0.085680404  0.078774553   0.26428002 
    3730   -296180.94          800  0.076409163  0.082725933  0.072032394   0.23116749   0.10026251  0.085433356  0.079146309   0.26484217 
    3740   -296200.69          800  0.076854704  0.082731025  0.071887715   0.23147344   0.10067348   0.08522245  0.079527781   0.26542371 
    3750   -296225.71          800  0.077290185  0.082716473  0.071810735   0.23181739   0.10103955  0.085056573  0.079947715   0.26604384 
    3760   -296238.47          800  0.077714121  0.082686711   0.07164606   0.23204689   0.10134096  0.084943532  0.080429806    0.2667143 
    3770    -296243.6    800.64954  0.078128228  0.082646492  0.071465712   0.23224043   0.10156029  0.084882084  0.080984538   0.26742691 
    3780   -296233.57     799.3158  0.078535356  0.082594471  0.071370707   0.23250053   0.10169315  0.084859782  0.081618821   0.26817175 
    3790   -296215.27          800  0.078937261  0.082532501  0.071163704   0.23263347   0.10174106  0.084868495  0.082330153   0.26893971 
    3800   -296191.49          800  0.079336333  0.082465508  0.070935444   0.23273729   0.10170739  0.084905694  0.083104544   0.26971763 
    3810   -296166.92          800  0.079734771  0.082398437  0.070790663   0.23292387    0.1015991  0.084969607  0.083913664   0.27048237 
    3820   -296149.49          800  0.080134995  0.082334606   0.07049918   0.23296878   0.10142344  0.085061113  0.084725051    0.2712096 
    3830   -296132.47          800  0.080537773  0.082271195  0.070350658   0.23315963   0.10119207   0.08518099  0.085511213   0.27188427 
    3840   -296126.91    799.29412  0.080942632  0.082200647  0.070009012   0.23315229   0.10092051  0.085334107  0.086259743   0.27251436 
    3850   -296136.84    800.60442  0.081347896  0.082118097  0.069657163   0.23312316   0.10063017  0.085525363  0.086963056   0.27311859 
    3860   -296150.62          800  0.081752566  0.082020569  0.069569239   0.23334237   0.10033692   0.08575761  0.087618188   0.27371272 
    3870   -296164.74          800  0.082149608  0.081908405  0.069255545   0.23331356   0.10004786  0.086030475  0.088221713   0.27430005 
    3880   -296173.79          800  0.082535753  0.081784481  0.068980276   0.23330051   0.09977766   0.08633352  0.088768527   0.27487971 
    3890   -296178.24    800.57537  0.082912221  0.081651753    0.0690897   0.23365367  0.099542725  0.086641583  0.089242749   0.27542706 
    3900   -296177.18    800.41771   0.08327789  0.081512148  0.068898961     0.233689  0.099344526  0.086940919  0.089632802   0.27591825 
    3910   -296177.94    800.51215  0.083631256   0.08136605  0.069140891    0.2341382  0.099176427  0.087229276  0.089928592    0.2763343 
    3920   -296180.16    800.79024  0.083970831  0.081213291  0.069014015   0.23419814  0.099035244  0.087510994  0.090119579   0.27666582 
    3930   -296183.93          800  0.084293404  0.081055324  0.068912411   0.23426114  0.098921402  0.087789537  0.090200324   0.27691126 
    3940   -296186.14    800.27281  0.084591886  0.080899931  0.069228261   0.23472008  0.098827999  0.088079824  0.090171956   0.27707978 
    3950   -296195.65          800  0.084860123  0.080751971  0.069165633   0.23477773  0.098746845  0.088393217  0.090028581   0.27716864 
    3960   -296207.55          800  0.085098269  0.080608519  0.069121246   0.23482803  0.098680812  0.088721828  0.089761338   0.27716398 
    3970   -296211.93    800.57482  0.085309751  0.080462135   0.06949696   0.23526885  0.098642776  0.089055621   0.08938153   0.27707993 
    3980   -296216.43          800   0.08549462  0.080307655  0.069505678   0.23530795  0.098642043  0.089387906  0.088901791   0.27693174 
    3990   -296219.65    800.43497  0.085653091  0.080145091  0.069543225   0.23534141  0.098684716  0.089706483  0.088342603    0.2767338 
    4000   -296221.63    800.69662  0.085784465  0.079976074  0.069922169   0.23568271  0.098771692   0.08999935  0.087723538   0.27649458 
    4010   -296236.32          800  0.085887087  0.079805792  0.070019819    0.2357127  0.098900815  0.090257187  0.087065845   0.27622385 
    4020   -296264.74          800  0.085958103  0.079643195  0.070141004    0.2357423  0.099067546  0.090482051  0.086388865   0.27593846 
    4030   -296290.07          800  0.085997505   0.07949308  0.070537243   0.23602783  0.099267048  0.090685287   0.08571057    0.2756629 
    4040   -296304.87          800  0.086012259  0.079353967  0.070678084   0.23604431  0.099485294  0.090874294  0.085040684   0.27540027 
    4050   -296308.92    800.53824  0.086012845  0.079223106  0.070820906   0.23605686  0.099699779  0.091056114  0.084376929   0.27513282 
    4060   -296313.76          800  0.086008174  0.079099975  0.071144269   0.23625242  0.099891367  0.091237015  0.083716864   0.27484525 
    4070   -296323.08          800  0.086005199  0.078986965  0.071286517   0.23627868   0.10004833  0.091422662   0.08307214   0.27454313 
    4080   -296332.39          800   0.08600858   0.07888738  0.071426675   0.23632263   0.10016495  0.091620727  0.082461433   0.27424711 
    4090   -296329.92    799.71049  0.086021256  0.078804303  0.071707067   0.23653263    0.1002402  0.091834865  0.081907779   0.27398285 
    4100   -296323.78          800  0.086042895  0.078741593  0.071871709    0.2366562   0.10027487   0.09206156  0.081437533   0.27377396 
    4110   -296321.89    799.74331  0.086070381  0.078706963  0.072203237   0.23698058   0.10026697  0.092301952    0.0810658   0.27363472 
    4120   -296323.56     799.9612   0.08610312  0.078705198  0.072410178    0.2372185    0.1002129  0.092550408  0.080794522   0.27355783 
    4130   -296317.73    799.20822  0.086141714  0.078731708  0.072632328   0.23750575   0.10010736  0.092792987  0.080618346    0.2735187 
    4140   -296314.35          800  0.086187726  0.078781927  0.073016129   0.23798578  0.099943239  0.093014047  0.080531566   0.27348885 
    4150   -296310.46    799.47874  0.086243436  0.078854217   0.07324255    0.2383402  0.099714516  0.093189926  0.080531156    0.2734356 
    4160   -296298.53          800  0.086310906  0.078945618  0.073453647   0.23871017  0.099423506  0.093291838  0.080613229   0.27332857 
    4170   -296283.87          800  0.086394193  0.079053274  0.073846398   0.23929386   0.09907788  0.093311892  0.080772344   0.27316212 
    4180    -296273.3          800  0.086494337  0.079175779  0.074013989   0.23968411  0.098688371  0.093255204  0.081003945   0.27294752 
    4190   -296267.83    799.27634  0.086607581  0.079315932  0.074159641   0.24008315  0.098262246  0.093133973  0.081312527   0.27270875 
    4200   -296265.43          800  0.086730393  0.079479389  0.074154296   0.24036408   0.09780329  0.092965211  0.081703734   0.27247223 
    4210   -296265.28    799.96819   0.08686157  0.079672509  0.074269614   0.24080369  0.097320287  0.092770734  0.082174969   0.27226599 
    4220   -296254.32          800  0.086998321  0.079896448   0.07437376   0.24126853  0.096824358   0.09256588  0.082724514   0.27211475 
    4230   -296226.38          800  0.087136803  0.080149998  0.074308927   0.24159573  0.096321033  0.092367171  0.083338268   0.27202647 
    4240   -296206.91          800  0.087276697  0.080430777  0.074397937   0.24210541  0.095818293  0.092186023  0.084006161   0.27201048 
    4250   -296198.73          800  0.087418159  0.080734782  0.074487721   0.24264066  0.095331537  0.092029858  0.084727553   0.27208895 
    4260   -296194.65    799.46884  0.087559063  0.081057009  0.074455852   0.24307192  0.094882015  0.091905494   0.08550224   0.27228975 
    4270   -296201.86    800.40158  0.087693254  0.081388482  0.074563722   0.24364546  0.094493625  0.091816535  0.086329352   0.27263951 
    4280   -296214.08          800  0.087813278  0.081719161  0.074597335   0.24412977  0.094188775  0.091766245  0.087200857   0.27315588 
    4290   -296229.34          800  0.087913967  0.082044343  0.074717285   0.24467559   0.09399029  0.091760883  0.088095468   0.27384664 
    4300   -296248.23          800  0.087993537   0.08236362   0.07484004    0.2451972   0.09391398  0.091801712    0.0889974   0.27471309 
    4310   -296262.83          800  0.088052286  0.082674279  0.074914882   0.24564145  0.093973966  0.091881872  0.089906908   0.27576275 
    4320   -296271.21          800  0.088091616  0.082974861   0.07505535   0.24612183  0.094178661   0.09199971  0.090813619   0.27699199 
    4330   -296274.65    800.45837  0.088112465  0.083258367  0.075208369    0.2465792  0.094535067  0.092154778  0.091705556    0.2783954 
    4340   -296279.01          800  0.088115386   0.08351082   0.07534856   0.24697477  0.095051123  0.092341272  0.092587072   0.27997947 
    4350   -296282.52    800.45463  0.088104345   0.08372415  0.075567645   0.24739614  0.095732085  0.092552656  0.093455743   0.28174048 
    4360   -296273.47     799.2795   0.08808546  0.083896496  0.075833457   0.24781541  0.096577027  0.092776507  0.094303391   0.28365693 
    4370   -296257.49          800  0.088064402   0.08402706   0.07605416   0.24814562  0.097575709  0.093001784  0.095120852   0.28569834 
    4380   -296240.65          800  0.088044414  0.084113846    0.0764206   0.24857886  0.098709189  0.093230958  0.095903162   0.28784331 
    4390   -296226.77          800  0.088028329  0.084153188  0.076824897   0.24900641  0.099952865  0.093471008  0.096634034   0.29005791 
    4400   -296206.53          800  0.088019088   0.08414417   0.07698661   0.24914987   0.10128238  0.093732149  0.097284927   0.29229946 
    4410   -296186.78          800  0.088020117  0.084090528  0.077422611   0.24953326   0.10267219  0.094021987  0.097825453   0.29451963 
    4420   -296177.45          800  0.088033283  0.084001194  0.077857166   0.24989164   0.10409693  0.094329318  0.098237772   0.29666402 
    4430    -296175.9    799.83254  0.088060638  0.083891573  0.077878482   0.24983069   0.10553488  0.094650991  0.098516825    0.2987027 
    4440   -296179.92     800.3781  0.088104346  0.083771081  0.078302753   0.25017818   0.10695449  0.095010997    0.0986725   0.30063799 
    4450   -296190.23          800  0.088160549  0.083642523  0.078726082   0.25052915   0.10832186  0.095416559  0.098718779    0.3024572 
    4460    -296200.9          800  0.088226568  0.083505669   0.07871993   0.25045217   0.10960517  0.095854037  0.098672511   0.30413172 
    4470   -296209.63          800  0.088302728  0.083359272  0.079146669   0.25080867   0.11078015  0.096308008  0.098557262   0.30564542 
    4480   -296208.97    799.85683    0.0883884  0.083205372  0.079569691   0.25116346   0.11183252  0.096784127   0.09839035     0.307007 
    4490   -296213.87    800.50388  0.088483375  0.083047431  0.079557114   0.25108792    0.1127541  0.097290054  0.098180795   0.30822495 
    4500   -296229.57          800  0.088589902  0.082888613  0.079948349   0.25142686   0.11354118  0.097829135  0.097933926   0.30930424 
    4510   -296239.29          800   0.08870833  0.082731527  0.080312732   0.25175259   0.11419438   0.09840542  0.097655721   0.31025552 
    4520   -296241.89    800.33788  0.088835785  0.082576271  0.080334002   0.25174606   0.11472111  0.099017376   0.09736252     0.311101 
    4530   -296240.06    800.09002  0.088968145  0.082422308  0.080626752   0.25201721   0.11513566  0.099661973  0.097071247   0.31186888 
    4540   -296225.22          800  0.089103321  0.082269718     0.080882   0.25225504    0.1154549   0.10033006  0.096791795   0.31257676 
    4550    -296196.4          800  0.089241526  0.082118995  0.080880139   0.25224066   0.11569557   0.10100489  0.096522916   0.31322337 
    4560   -296170.95          800  0.089383083  0.081972499  0.081061416     0.252417   0.11587287    0.1016805  0.096259268   0.31381264 
    4570   -296149.18          800  0.089526926  0.081833405  0.081061927   0.25242226   0.11599944   0.10234139  0.095998647   0.31433948 
    4580   -296131.09          800  0.089670073  0.081703814  0.081182107   0.25255599   0.11608559   0.10296243  0.095748479    0.3147965 
    4590   -296120.53          800   0.08980935  0.081584648  0.081276106    0.2526701     0.116146   0.10352165   0.09552001   0.31518766 
    4600    -296116.5    799.47533  0.089941517  0.081473872  0.081224529   0.25263992   0.11619962   0.10399572  0.095317039   0.31551238 
    4610   -296121.55    800.13936  0.090061264  0.081370394   0.08126586   0.25269752   0.11625923   0.10437604  0.095142269   0.31577754 
    4620   -296131.56          800  0.090161428  0.081273721  0.081276522   0.25271167   0.11633415   0.10467265  0.094993992   0.31600079 
    4630    -296139.6          800  0.090236158  0.081181383  0.081178525   0.25259607    0.1164252   0.10490101  0.094867569   0.31619378 
    4640   -296152.71          800  0.090282562  0.081091536  0.081106733   0.25248083   0.11652967   0.10507376  0.094768164   0.31637159 
    4650   -296166.35          800  0.090300529  0.081002516   0.08098914   0.25229218   0.11664732   0.10519222  0.094709734   0.31654928 
    4660   -296175.17          800  0.090291364  0.080912961  0.080779885   0.25198421   0.11677232   0.10524605  0.094712751   0.31673112 
    4670   -296185.38          800  0.090256186  0.080825786  0.080565771   0.25164774   0.11688839   0.10522535  0.094804404   0.31691814 
    4680   -296203.51          800   0.09019786  0.080744993  0.080306282   0.25124913   0.11697789   0.10513652  0.095003172   0.31711758 
    4690   -296229.29          800  0.090120192  0.080671519   0.07998371   0.25077542   0.11702425   0.10498591  0.095315683   0.31732584 
    4700   -296245.75          800  0.090029276  0.080604971  0.079656508   0.25029076   0.11701154     0.104775  0.095740618   0.31752715 
    4710   -296246.06    800.03757   0.08992745  0.080542811  0.079310419   0.24978068    0.1169293   0.10450458  0.096271342   0.31770523 
    4720    -296245.3    799.94358  0.089813759  0.080485017  0.078951633   0.24925041   0.11678327   0.10417623  0.096893966   0.31785346 
    4730   -296239.17    799.15047  0.089683429  0.080433176  0.078570535   0.24868714   0.11659188   0.10379965  0.097578215   0.31796974 
    4740   -296222.88          800  0.089536966  0.080385536  0.078187557   0.24811006   0.11636007   0.10338755   0.09828499   0.31803261 
    4750   -296204.03          800  0.089376333  0.080338466  0.077798228   0.24751303   0.11609537   0.10294735   0.09897818    0.3180209 
    4760   -296192.43          800  0.089204733   0.08028827   0.07740871   0.24690171   0.11581221   0.10247803  0.099633887   0.31792413 
    4770   -296182.78          800  0.089025147  0.080232605  0.077024944    0.2462827   0.11552135   0.10197786   0.10024179     0.317741 
    4780   -296171.72          800  0.088840488  0.080163665  0.076659475   0.24566363   0.11523454   0.10144675   0.10080527   0.31748656 
    4790   -296158.55          800  0.088653337  0.080073047  0.076310486   0.24503687   0.11496439   0.10089201    0.1013364    0.3171928 
    4800    -296149.6          800  0.088465776  0.079957358  0.075987873   0.24441101   0.11472658   0.10032977    0.1018424   0.31689875 
    4810   -296148.42     799.8645  0.088278691  0.079814264  0.075697789   0.24379074   0.11454202  0.099776033   0.10231651   0.31663456 
    4820   -296144.25    799.32507  0.088094048  0.079642481  0.075437903   0.24317443   0.11442506  0.099242892   0.10275133   0.31641928 
    4830   -296129.54          800  0.087917494  0.079443305  0.075209709   0.24257051   0.11438325  0.098741736   0.10313991   0.31626489 
    4840   -296105.39          800   0.08775524  0.079220655  0.075013227   0.24198912   0.11442622   0.09827554    0.1034674   0.31616915 
    4850   -296088.51          800  0.087608734  0.078984985  0.074850167   0.24144389   0.11455679  0.097848363   0.10371152   0.31611667 
    4860   -296076.19          800  0.087475722  0.078751179  0.074718855   0.24094576   0.11476181   0.09747055   0.10385092   0.31608328 
    4870   -296056.49          800  0.087354283  0.078530349   0.07461555   0.24050018   0.11502759  0.097141612   0.10387823   0.31604744 
    4880   -296034.05          800   0.08724638  0.078330936  0.074546909   0.24012422   0.11533595  0.096853834   0.10379656   0.31598634 
    4890   -296030.55    799.56927  0.087154298  0.078158922  0.074514494   0.23982771   0.11565688  0.096598224   0.10361199   0.31586709 
    4900    -296048.4          800  0.087074913  0.078018087  0.074522157   0.23961516   0.11596773  0.096371095   0.10332724   0.31566607 
    4910    -296072.9          800  0.087004844  0.077905577  0.074570888   0.23948131   0.11624847  0.096171409   0.10294836   0.31536825 
    4920   -296102.54          800  0.086942766  0.077814331  0.074665072   0.23942217   0.11648102  0.095997528   0.10248474   0.31496329 
    4930   -296139.96          800  0.086889156  0.077737496  0.074804566   0.23943122   0.11665172  0.095841177    0.1019466    0.3144395 
    4940   -296178.62          800  0.086845127  0.077660586  0.074992697   0.23949841   0.11675836  0.095688652   0.10134064   0.31378765 
    4950    -296215.4          800  0.086810076  0.077562966  0.075225382   0.23959842   0.11681029  0.095533706   0.10068299   0.31302699 
    4960   -296256.29          800  0.086777902  0.077438656   0.07549452   0.23971108   0.11682508  0.095372638  0.099990726   0.31218845 
    4970   -296302.17          800   0.08674488  0.077290375    0.0757929   0.23982816   0.11681264  0.095198298   0.09928098   0.31129192 
    4980   -296350.01          800   0.08671546  0.077121491  0.076129715   0.23996667    0.1167666  0.095005372  0.098575326   0.31034729 
    4990   -296394.62          800  0.086692937  0.076937993  0.076466246   0.24009718   0.11668571  0.094792832    0.0978929   0.30937144 
    5000   -296432.51          800  0.086677953  0.076748107  0.076815714   0.24024177    0.1165777  0.094566612  0.097244017   0.30838833 
    5010   -296462.74          800  0.086670793  0.076561199  0.077213625   0.24044562   0.11645165  0.094339296  0.096634447    0.3074254 
    5020   -296473.44          800  0.086669117  0.076390564  0.077583842   0.24064352   0.11630926  0.094127889  0.096071046   0.30650819 
    5030   -296471.57    799.79417  0.086670193  0.076250201  0.077939402    0.2408598   0.11615962  0.093940957     0.095556   0.30565658 
    5040   -296465.65    799.02461  0.086674207  0.076146887  0.078318661   0.24113976   0.11601985  0.093785434  0.095083603   0.30488889 
    5050   -296457.39          800  0.086679269  0.076076941  0.078700749   0.24145696   0.11591404  0.093669931   0.09464888   0.30423285 
    5060   -296449.19          800  0.086684916  0.076033913  0.079061087   0.24177992   0.11586653  0.093594852  0.094246438   0.30370782 
    5070   -296439.43          800  0.086694615  0.076012744   0.07944404    0.2421514   0.11589115  0.093555798  0.093873944    0.3033209 
    5080   -296428.13          800  0.086713045  0.076011931  0.079822214   0.24254719   0.11599116  0.093538584  0.093525941   0.30305569 
    5090   -296422.27    799.22311  0.086743547  0.076033853   0.08016598   0.24294338   0.11615783  0.093539755  0.093194758   0.30289235 
    5100   -296414.96          800  0.086786735  0.076084125  0.080515865   0.24338672   0.11637716  0.093578201   0.09287252   0.30282788 
    5110   -296400.68          800  0.086842042  0.076169126  0.080826498   0.24383767   0.11663793  0.093678626  0.092550046    0.3028666 
    5120   -296379.91          800  0.086910107  0.076290112  0.081128844   0.24432906   0.11693004  0.093851341  0.092222041   0.30300343 
    5130   -296360.73          800  0.086993818  0.076438507  0.081412195   0.24484452   0.11723087  0.094086767  0.091889169   0.30320681 
    5140      -296344          800  0.087099069  0.076611044  0.081668796   0.24537891   0.11751237  0.094373681  0.091553634   0.30343969 
    5150   -296324.17          800  0.087232128   0.07680452  0.081919742   0.24595639   0.11775745  0.094692311  0.091223613   0.30367338 
    5160   -296302.25          800  0.087398652  0.077013404  0.082153982   0.24656604   0.11795926  0.095016782  0.090908879   0.30388492 
    5170   -296286.36          800  0.087598408  0.077233706  0.082364547   0.24719666   0.11811109   0.09532992  0.090618566   0.30405957 
    5180   -296278.97    799.05386  0.087826128  0.077462567  0.082570099   0.24785879   0.11820536  0.095629332  0.090365495   0.30420019 
    5190   -296274.13          800  0.088075227  0.077698542  0.082769574   0.24854334   0.11823638  0.095909426  0.090164214   0.30431002 
    5200   -296272.59    799.77852  0.088340787  0.077948805  0.082959212    0.2492488   0.11819797  0.096169255  0.090027684    0.3043949 
    5210   -296277.68     800.4181  0.088617155  0.078229187  0.083148517   0.24999486   0.11808747  0.096419332  0.089963478   0.30447027 
    5220   -296289.62          800  0.088896939  0.078547482  0.083322352   0.25076677   0.11791849  0.096669275  0.089975831   0.30456359 
    5230   -296302.47          800  0.089177799  0.078898826  0.083464003   0.25154063   0.11771369  0.096916893  0.090072278   0.30470286 
    5240   -296314.09          800  0.089458935  0.079281029  0.083587196   0.25232716   0.11749696  0.097156632  0.090260866   0.30491446 
    5250   -296321.58    800.97838  0.089737121  0.079691369  0.083680403   0.25310889   0.11728237  0.097384682  0.090547669   0.30521472 
    5260   -296327.92          800   0.09000824   0.08012699  0.083736314   0.25387154   0.11707936  0.097596741  0.090934504   0.30561061 
    5270   -296334.72    800.89981  0.090270144  0.080585145   0.08376698   0.25462227   0.11689713  0.097779876  0.091408801    0.3060858 
    5280    -296331.8    800.54145  0.090522754  0.081064452  0.083770323   0.25535753   0.11674221    0.0979194  0.091946851   0.30660846 
    5290    -296325.6    799.75696  0.090765043  0.081558465  0.083754798   0.25607831   0.11661781   0.09801279  0.092528313   0.30715892 
    5300   -296323.03    799.41596  0.090997573  0.082063412  0.083719761   0.25678075   0.11652102  0.098069503  0.093133658   0.30772419 
    5310   -296315.39          800  0.091220095  0.082578003  0.083663091   0.25746119   0.11644391  0.098102099  0.093745158   0.30829117 
    5320   -296299.05          800  0.091431017   0.08310101  0.083595725   0.25812775    0.1163801  0.098120577  0.094351374   0.30885205 
    5330   -296284.36          800  0.091628561    0.0836289  0.083501912   0.25875937   0.11632848  0.098129689  0.094946745   0.30940491 
    5340   -296274.64          800  0.091810015  0.084154093  0.083442616   0.25940672   0.11629179  0.098130551  0.095530539   0.30995288 
    5350    -296263.6          800  0.091971834  0.084669667  0.083324743   0.25996624   0.11627532  0.098125188  0.096105227   0.31050574 
    5360   -296250.25          800  0.092111561  0.085175451  0.083191712   0.26047872   0.11628737  0.098118749  0.096676524   0.31108265 
    5370   -296228.38          800  0.092228672  0.085668162   0.08303737    0.2609342   0.11633785  0.098124528  0.097253662   0.31171604 
    5380    -296206.4          800  0.092321874  0.086145678  0.082881814   0.26134937   0.11643026  0.098176243  0.097843582   0.31245009 
    5390   -296189.09          800   0.09239139    0.0866094  0.082721587   0.26172238   0.11656015   0.09830522  0.098442483   0.31330785 
    5400   -296177.55          800  0.092441408  0.087062597  0.082570298    0.2620743   0.11672143  0.098523244  0.099038088   0.31428276 
    5410   -296167.65          800  0.092478295  0.087508708  0.082404657   0.26239166   0.11691289  0.098826126  0.099618367   0.31535738 
    5420   -296152.83          800  0.092509742  0.087944911  0.082234858   0.26268951   0.11713795  0.099209381   0.10017172   0.31651906 
    5430   -296143.14          800  0.092544577  0.088365508  0.082094525   0.26300461    0.1174001  0.099670047   0.10068584   0.31775598 
    5440   -296135.64     799.0346  0.092588918  0.088774784  0.081906407   0.26327011   0.11769733   0.10020536    0.1011456   0.31904829 
    5450   -296132.35          800  0.092645508  0.089175052  0.081699412   0.26351997   0.11802548   0.10080958   0.10153998   0.32037503 
    5460   -296129.43    799.64087  0.092712501  0.089569217  0.081482395   0.26376411    0.1183823   0.10147919   0.10185954   0.32172103 
    5470   -296128.83    799.55576  0.092785308  0.089957107  0.081244078   0.26398649   0.11876406   0.10221166   0.10210116   0.32307688 
    5480   -296134.27    800.26623  0.092858642  0.090335526  0.080995875   0.26419004   0.11916483   0.10299862   0.10226822   0.32443167 
    5490    -296136.2    800.50742   0.09293025  0.090700862   0.08070246   0.26433357   0.11957601   0.10381887   0.10236176   0.32575663 
    5500   -296143.64          800  0.093002615  0.091047865  0.080448108   0.26449859    0.1199915   0.10463758   0.10238196   0.32701104 
    5510   -296153.34          800  0.093079078  0.091370318  0.080197033   0.26464643   0.12040492   0.10543126    0.1023278   0.32816397 
    5520   -296158.65    800.70078  0.093160191  0.091664932  0.079928241   0.26475336   0.12080568   0.10618623   0.10219598   0.32918788 
    5530   -296163.05          800  0.093243728  0.091939023  0.079675403   0.26485815   0.12117638   0.10689811   0.10197653   0.33005102 
    5540   -296167.78    800.62612  0.093326879  0.092196467  0.079410271   0.26493362   0.12149502   0.10756208   0.10167436   0.33073146 
    5550   -296169.21    800.80979  0.093405837  0.092437572  0.079161409   0.26500482   0.12174007   0.10816979   0.10131076   0.33122062 
    5560   -296172.45          800  0.093477622   0.09266296  0.078873247   0.26501383   0.12189062   0.10871568   0.10090316   0.33150946 
    5570   -296181.21          800  0.093541502   0.09287168  0.078648684   0.26506187   0.12192584   0.10920008   0.10046131   0.33158723 
    5580   -296195.35          800  0.093597141  0.093065648  0.078349947   0.26501274    0.1218297   0.10961885  0.099996661    0.3314452 
    5590   -296215.03          800  0.093642616  0.093244268  0.078047858   0.26493474   0.12159979   0.10995452  0.099525087    0.3310794 
    5600   -296237.21          800   0.09367586  0.093405988  0.077848133   0.26492998   0.12125232   0.11019301  0.099061814   0.33050714 
[...]
  248670   -296554.41          800    0.1614082   0.23036544   0.19035216   0.58212579   0.24535119   0.21920492   0.20275113   0.66730724 
  248680   -296559.16    800.58179   0.16198001   0.23077305   0.19006514   0.58281819   0.24409738   0.21820014   0.20378717    0.6660847 
  248690   -296562.62          800   0.16254751   0.23112989   0.18978454   0.58346194   0.24279716   0.21717119   0.20480917   0.66477752 
  248700   -296563.08    800.07204   0.16310428   0.23142499   0.18953788   0.58406716   0.24147645   0.21614309   0.20580073   0.66342028 
  248710   -296554.67          800    0.1636507   0.23165206   0.18929696   0.58459972   0.24014824   0.21514904   0.20675473   0.66205201 
  248720   -296549.65    799.36042    0.1641894    0.2318097   0.18907735   0.58507646    0.2388196   0.21421539   0.20766031    0.6606953 
  248730   -296559.32    800.59391   0.16472328    0.2319012    0.1888765   0.58550098   0.23749485   0.21336459    0.2085056   0.65936504 
  248740   -296577.11          800   0.16525607   0.23193388   0.18871299   0.58590293   0.23617712   0.21262102   0.20928102   0.65807916 
  248750   -296591.77          800   0.16579029   0.23191501   0.18858371   0.58628901   0.23487978   0.21200716   0.20997975   0.65686669 
  248760   -296606.27          800   0.16632741   0.23185115   0.18846743   0.58664598   0.23362035   0.21153581   0.21060209   0.65575825 
  248770   -296630.98          800   0.16686489   0.23175221   0.18842077   0.58703787   0.23241993   0.21121074   0.21114784    0.6547785 
  248780    -296658.6          800   0.16739671   0.23162858    0.1884157   0.58744099   0.23130137   0.21102406   0.21160747    0.6539329 
  248790   -296682.48          800   0.16791598   0.23148386   0.18842378   0.58782363   0.23028596   0.21096103    0.2119631   0.65321009 
  248800   -296704.01          800    0.1684151   0.23131737   0.18844881   0.58818128   0.22938689   0.21101026   0.21219655    0.6525937 
  248810   -296721.38          800   0.16888829    0.2311271   0.18857473   0.58859012   0.22860702   0.21116865   0.21229778   0.65207346 
  248820   -296739.05          800   0.16933574   0.23091202   0.18858628   0.58883405   0.22794605   0.21143378   0.21226992   0.65164974 
  248830   -296755.16          800    0.1697591   0.23067596   0.18858675    0.5890218   0.22739936    0.2117952   0.21212355   0.65131811 
  248840   -296771.73          800   0.17015915   0.23042424   0.18881094   0.58939432   0.22694647   0.21224851   0.21187192   0.65106691 
  248850   -296784.16          800   0.17053636   0.23016097   0.18883923   0.58953656   0.22655717   0.21279297   0.21152872   0.65087887 
  248860   -296789.48    800.72068   0.17089332   0.22988739   0.18891058   0.58969128   0.22620174   0.21342039   0.21111163   0.65073377 
  248870   -296790.18    800.81167   0.17123457   0.22960152   0.18932198   0.59015807   0.22586086   0.21411294   0.21064847   0.65062227 
  248880   -296785.87    800.27003   0.17156207   0.22929966   0.18949815   0.59035988   0.22553417   0.21485139   0.21017054    0.6505561 
  248890   -296779.39    799.45906   0.17187344    0.2289773   0.18973423   0.59058497   0.22523014   0.21561882   0.20969464   0.65054361 
  248900   -296773.29          800   0.17216344   0.22862988   0.19016937   0.59096269   0.22496113   0.21640559   0.20922146   0.65058818 
  248910   -296770.59    799.64529   0.17242839   0.22825138   0.19052562    0.5912054   0.22474275   0.21720904   0.20874539   0.65069719 
  248920   -296763.53          800   0.17266727   0.22783773   0.19093544   0.59144045   0.22458468   0.21803042   0.20825829   0.65087338 
  248930   -296756.16     799.0428   0.17288094    0.2273881   0.19150809   0.59177713   0.22449009   0.21887196   0.20775687   0.65111892 
  248940   -296746.74          800   0.17307016   0.22690811   0.19199144    0.5919697   0.22446041   0.21972735   0.20724961   0.65143737 
  248950   -296735.06          800   0.17323514   0.22640685   0.19249266   0.59213465   0.22448713   0.22059086   0.20675489   0.65183289 
  248960   -296726.11          800   0.17337636   0.22589577   0.19316776   0.59243989   0.22455514   0.22144755   0.20629883   0.65230152 
  248970   -296722.12    799.48289   0.17349537   0.22538354   0.19365452   0.59253343   0.22465482   0.22227346   0.20590451   0.65283279 
  248980   -296718.42     799.0129   0.17359364   0.22487551   0.19411821   0.59258737   0.22478373   0.22304788   0.20558297   0.65341458 
  248990   -296701.33          800   0.17367209   0.22437693    0.1946708   0.59271982   0.22494276    0.2237585   0.20533061   0.65403188 
  249000   -296673.66          800   0.17372915   0.22388715   0.19510982   0.59272611   0.22513702   0.22439183   0.20513658   0.65466543 
  249010   -296643.13          800   0.17376403   0.22340019   0.19554891   0.59271312   0.22538471   0.22493112   0.20499838   0.65531421 
  249020   -296621.07          800   0.17377691   0.22291035   0.19585689   0.59254415   0.22570833    0.2253673   0.20491617   0.65599179 
  249030    -296601.9          800   0.17376875   0.22241554   0.19633453   0.59251882    0.2261251   0.22569788   0.20488273   0.65670571 
  249040   -296590.98          800   0.17374226   0.22191623   0.19683966   0.59249815   0.22664456   0.22591931   0.20488871   0.65745258 
  249050   -296588.54    799.70283   0.17370044   0.22141697   0.19726233   0.59237974   0.22726431   0.22602514   0.20492965    0.6582191 
  249060   -296591.07    800.04229   0.17364642   0.22092618   0.19782057   0.59239317   0.22797326   0.22601588   0.20500265    0.6589918 
  249070   -296603.13          800    0.1735842   0.22045102   0.19838562   0.59242084   0.22875698   0.22589846   0.20510182   0.65975727 
  249080   -296618.99          800   0.17351917   0.21999433    0.1989743    0.5924878   0.22960349   0.22567678   0.20521822   0.66049849 
  249090      -296624    800.64839   0.17345438   0.21955605   0.19956633   0.59257676   0.23050851   0.22535285   0.20534259   0.66120395 
  249100   -296618.62    799.88971   0.17339046   0.21913507   0.20010227    0.5926278   0.23147826   0.22493012   0.20547296   0.66188134 
  249110   -296610.37          800   0.17332729   0.21872829   0.20067944   0.59273502   0.23252483   0.22440963   0.20561646   0.66255092 
  249120   -296602.54          800   0.17326332   0.21833199   0.20123748   0.59283279   0.23365541   0.22378429   0.20578026   0.66321995 
  249130   -296600.14    799.67183   0.17319804   0.21794692   0.20163651   0.59278147   0.23486193   0.22304701   0.20596005   0.66386899 
  249140   -296594.97    799.00684   0.17313281   0.21757565   0.20214751   0.59285597   0.23612787   0.22219916   0.20614748   0.66447451 
  249150   -296593.97          800   0.17306971    0.2172193   0.20263456   0.59292357   0.23743526   0.22124462   0.20634293   0.66502281 
  249160   -296599.02    800.66196   0.17301013    0.2168799   0.20291072   0.59280075   0.23876071   0.22019768   0.20655737   0.66551576 
  249170   -296597.46    800.50196   0.17295383   0.21655872   0.20336715    0.5928797   0.24007415    0.2190911   0.20681415    0.6659794 
  249180   -296579.86          800   0.17289763   0.21625424   0.20381467   0.59296655   0.24135431   0.21796439   0.20713498   0.66645368 
  249190   -296558.89          800   0.17284036   0.21596206   0.20411218   0.59291461    0.2425952   0.21685062   0.20753192   0.66697774 
  249200   -296544.49          800   0.17278649   0.21568015   0.20453749   0.59300412   0.24380177   0.21577731   0.20801088   0.66758997 
  249210   -296531.21          800   0.17274196   0.21540761   0.20494237   0.59309194   0.24498115   0.21476992   0.20857298   0.66832406 
  249220   -296520.56          800   0.17270766   0.21513969   0.20533077   0.59317812   0.24613763   0.21384982   0.20921808   0.66920553 
  249230   -296515.86    799.41018   0.17268588    0.2148708   0.20569066   0.59324733   0.24727222   0.21302433   0.20994875    0.6702453 
  249240   -296522.59    800.26293   0.17268562   0.21459497   0.20602391    0.5933045   0.24838618   0.21229285   0.21076673   0.67144576 
  249250   -296532.81          800   0.17271524   0.21430472    0.2063603   0.59338026   0.24947684   0.21164786   0.21166929   0.67279399 
  249260   -296544.41          800   0.17277986   0.21399337    0.2066463   0.59341953   0.25053578   0.21107933   0.21264649    0.6742616 
  249270   -296551.15    800.87951   0.17288294    0.2136559   0.20691269   0.59345154    0.2515589   0.21058191   0.21368248   0.67582329 
  249280      -296549    800.63228    0.1730288   0.21329023    0.2071409   0.59345993   0.25254323   0.21015126   0.21475899   0.67745349 
  249290   -296538.55    799.30881   0.17322324   0.21290192   0.20734687   0.59347204   0.25348341   0.20977938   0.21586258   0.67912537 
  249300   -296534.45          800    0.1734739   0.21250199   0.20756032   0.59353621   0.25436587   0.20946079   0.21698761   0.68081427 
  249310   -296540.48    800.80395   0.17378564   0.21210348   0.20769041   0.59357954   0.25517551   0.20919566   0.21812654   0.68249771 
  249320   -296553.88          800   0.17416035    0.2117189   0.20778382   0.59366307   0.25590289   0.20898124   0.21926236   0.68414649 
  249330   -296566.97          800   0.17459845   0.21135623   0.20797304   0.59392772    0.2565411   0.20880998   0.22037584   0.68572692 
  249340   -296577.07          800   0.17509922   0.21101524   0.20801167   0.59412613   0.25708492   0.20867639   0.22145265   0.68721396 
  249350   -296585.67          800   0.17565935   0.21069222   0.20803897   0.59439054   0.25752594     0.208583   0.22248001   0.68858895 
  249360   -296592.93    800.92273   0.17627657   0.21038684   0.20815701   0.59482042    0.2578571   0.20853276   0.22344399   0.68983385 
  249370   -296585.75    799.99955    0.1769522    0.2101026   0.20821254   0.59526734   0.25808422   0.20851429   0.22432131   0.69091982 
  249380   -296573.22          800   0.17768503   0.20983608   0.20828866   0.59580978   0.25822192    0.2085127   0.22508369   0.69181831 
  249390    -296556.3          800   0.17846998   0.20957969   0.20840196   0.59645163   0.25828494   0.20853161   0.22571963   0.69253618 
  249400   -296534.49          800   0.17929434   0.20932854   0.20854814   0.59717103    0.2582893    0.2085795   0.22622352   0.69309232 
  249410   -296505.25          800   0.18014515   0.20908047    0.2086233   0.59784892   0.25825466   0.20865507   0.22659443   0.69350416 
  249420   -296471.48          800   0.18101254   0.20883624   0.20881521     0.598664   0.25820911   0.20874286   0.22683526   0.69378724 
  249430   -296439.76          800   0.18188841   0.20859867   0.20901145   0.59949852   0.25818521   0.20882328   0.22695254   0.69396103 
  249440    -296422.1          800   0.18276394   0.20836914    0.2090683   0.60020138   0.25820719   0.20888625   0.22695399   0.69404743 
  249450   -296425.18    800.38712   0.18362984   0.20814797   0.20925145   0.60102927   0.25828485   0.20893046   0.22684793   0.69406324 
  249460   -296433.31          800   0.18448242   0.20793376   0.20931059   0.60172678   0.25840769   0.20896783   0.22666295   0.69403848 
  249470   -296439.61    800.82231    0.1853198   0.20772253   0.20954142   0.60258375   0.25855502   0.20901685   0.22643292   0.69400479 
  249480   -296448.68          800   0.18614067   0.20751349   0.20982598   0.60348014   0.25871915    0.2090888   0.22618104   0.69398899 
  249490   -296464.12          800    0.1869445   0.20731298   0.21004618   0.60430366    0.2588982   0.20919361   0.22592157   0.69401338 
  249500   -296481.04          800   0.18773353    0.2071318   0.21046626   0.60533159   0.25909164   0.20933584   0.22565975   0.69408723 
  249510   -296499.76          800   0.18850485   0.20697533   0.21096036   0.60644055   0.25929878   0.20951873    0.2253963   0.69421381 
  249520   -296521.22          800   0.18925329   0.20684441   0.21143176   0.60752946   0.25951718   0.20974299   0.22513122    0.6943914 
  249530   -296540.37          800   0.18997745    0.2067407   0.21206247   0.60878062   0.25973836   0.21000537   0.22486591   0.69460964 
  249540   -296567.92          800    0.1906773   0.20666776    0.2127585   0.61010357   0.25995144   0.21029901   0.22459835    0.6948488 
  249550   -296603.07          800   0.19135184    0.2066233   0.21346368   0.61143881   0.26014469   0.21061958   0.22432727   0.69509154 
  249560    -296637.8          800   0.19200702   0.20659684   0.21428353   0.61288739   0.26028925    0.2109676   0.22404339   0.69530024 
  249570    -296666.8          800   0.19264941   0.20658031   0.21516105   0.61439077   0.26036416   0.21134767   0.22374795   0.69545978 
  249580   -296679.78          800   0.19328095   0.20656465   0.21606383   0.61590942   0.26036802   0.21175304   0.22345359   0.69557465 
  249590   -296681.34    800.20381   0.19390018   0.20653481   0.21702477   0.61745976   0.26030915   0.21216289   0.22315399   0.69562603 
  249600    -296681.1    800.16786   0.19450835   0.20648303   0.21800318   0.61899456   0.26020184    0.2125691   0.22282803   0.69559897 
  249610   -296683.52     800.4808   0.19511163   0.20640782   0.21896265   0.62048209   0.26005695   0.21297468   0.22245723   0.69548886 
  249620    -296686.8    800.91587   0.19571339   0.20630536   0.21994914   0.62196789   0.25987648   0.21338291   0.22202784   0.69528723 
  249630   -296686.89     800.9233   0.19631424   0.20617044    0.2209354   0.62342008   0.25965496   0.21379234   0.22153455   0.69498185 
  249640   -296685.89    800.78434   0.19691613   0.20599802   0.22192639   0.62484054   0.25938424   0.21419649   0.22098329   0.69456402 
  249650   -296692.39          800   0.19751835   0.20578511   0.22292419   0.62622764   0.25906112   0.21458683   0.22038843   0.69403638 
  249660    -296701.7          800   0.19811937   0.20553441   0.22392829   0.62758208   0.25868714   0.21496029   0.21975832   0.69340575 
  249670   -296692.09          800   0.19871988   0.20525718   0.22493807   0.62891513   0.25825856   0.21533621   0.21908044   0.69267521 
  249680   -296681.04          800   0.19931836   0.20496396   0.22595594   0.63023826    0.2577749   0.21572959   0.21835172   0.69185622 
  249690   -296673.55    799.02786   0.19991422   0.20466075   0.22696251   0.63153747   0.25724352    0.2161298   0.21758096   0.69095429 
  249700   -296659.53          800   0.20050631   0.20435566   0.22797358   0.63283555   0.25667187   0.21652594   0.21677675   0.68997456 
  249710   -296647.07          800   0.20109081   0.20405126    0.2289605   0.63410257   0.25608043   0.21693332   0.21595689   0.68897064 
  249720   -296639.33          800    0.2016596   0.20374841   0.22994327   0.63535128   0.25549905   0.21737366   0.21514846   0.68802117 
  249730   -296635.75    799.56015   0.20220545   0.20344961   0.23090328   0.63655834   0.25494175   0.21785011   0.21438418   0.68717605 
  249740   -296628.01          800   0.20272507   0.20315711   0.23182131   0.63770349   0.25441217   0.21835743   0.21370188   0.68647147 
  249750   -296618.15          800   0.20321979   0.20287093   0.23270123   0.63879196   0.25391182   0.21889138   0.21312941    0.6859326 
  249760   -296609.92          800   0.20369255   0.20259108   0.23352388   0.63980751   0.25344228   0.21944539   0.21268522   0.68557288 
  249770   -296603.19    799.14419   0.20414271    0.2023212   0.23427822   0.64074213   0.25299446   0.22000911   0.21237361   0.68537718 
  249780   -296594.11          800   0.20456746   0.20206773   0.23497329   0.64160848   0.25256092   0.22057018   0.21217609    0.6853072 
  249790   -296592.23    799.74845   0.20497097   0.20183231   0.23560766   0.64241095   0.25214286   0.22110957   0.21206606   0.68531848 
  249800    -296600.4    800.80785    0.2053595   0.20161663    0.2361803   0.64315644   0.25174708   0.22160017   0.21202456    0.6853718 
  249810   -296603.45          800   0.20573447     0.201425   0.23668942   0.64384889      0.25138   0.22201548   0.21203653   0.68543201 
  249820   -296606.86    800.46283    0.2060925   0.20126394   0.23714002   0.64449645   0.25104745   0.22232814   0.21208505   0.68546064 
  249830   -296613.38          800   0.20643248   0.20113931   0.23754762   0.64511941   0.25076688   0.22253045   0.21215786   0.68545519 
  249840   -296618.69    800.73197   0.20675379   0.20105631   0.23789513   0.64570523   0.25055961   0.22262133   0.21225061   0.68543155 
  249850   -296628.77          800   0.20705356   0.20102104   0.23820361   0.64627821   0.25044256   0.22261195   0.21237263   0.68542714 
  249860   -296639.75          800   0.20732466   0.20104229   0.23850311   0.64687006   0.25042385   0.22253154   0.21253315   0.68548855 
  249870   -296645.46    800.77601   0.20756175   0.20112091   0.23874671   0.64742937   0.25050007    0.2224084   0.21272918   0.68563765 
  249880   -296634.62    799.38308   0.20776419   0.20124531   0.23899675   0.64800625   0.25066069   0.22225891   0.21294872   0.68586831 
  249890   -296607.32          800   0.20793562   0.20140086    0.2391857   0.64852217   0.25089866   0.22208941   0.21317662    0.6861647 
  249900   -296584.55          800   0.20808315   0.20158005   0.23934289   0.64900609   0.25121304   0.22189491    0.2133971   0.68650505 
  249910   -296576.48          800   0.20821178   0.20177751   0.23948117   0.64947047   0.25159899   0.22166757   0.21359472   0.68686127 
  249920   -296573.95    799.69535   0.20832803   0.20198648   0.23956106   0.64987557   0.25204857   0.22139706   0.21376064   0.68720627 
  249930   -296570.52    799.26201   0.20843703   0.20220415   0.23961867   0.65025986   0.25254983   0.22107122   0.21389104   0.68751209 
  249940   -296567.65          800   0.20853922   0.20243406   0.23961506   0.65058835   0.25308959   0.22068561   0.21397759    0.6877528 
  249950   -296571.67    800.48825   0.20863121   0.20268127   0.23956982    0.6508823   0.25366218   0.22024102   0.21401668   0.68791988 
  249960   -296575.68    800.96994   0.20870663   0.20294999   0.23949808    0.6511547   0.25426516   0.21974259    0.2140104   0.68801815 
  249970   -296572.56     800.5565   0.20875577   0.20324544   0.23936785   0.65136905   0.25489741   0.21920058   0.21396658   0.68806458 
  249980   -296571.86    800.47291   0.20876573   0.20357314   0.23919424   0.65153312   0.25555136   0.21862729   0.21389585   0.68807449 
  249990   -296567.05    799.83834   0.20872648   0.20393183   0.23899122   0.65164952   0.25621464   0.21803257   0.21380324   0.68805044 
  250000   -296556.77          800   0.20863584   0.20431224   0.23874523    0.6516933   0.25687657   0.21742182   0.21368914   0.68798753 
Loop time of 10697.4 on 32 procs for 250000 steps with 2577 atoms

Performance: 0.404 ns/day, 59.430 hours/ns, 23.370 timesteps/s
100.0% CPU use with 32 MPI tasks x no OpenMP threads

MPI task timing breakdown:
Section |  min time  |  avg time  |  max time  |%varavg| %total
---------------------------------------------------------------
Pair    | 5773.4     | 7338.9     | 9471       |1485.1 | 68.60
Neigh   | 53.466     | 77.143     | 99.178     | 232.9 |  0.72
Comm    | 45.673     | 1906.2     | 3704.8     |2641.1 | 17.82
Output  | 37.799     | 37.843     | 37.882     |   0.3 |  0.35
Modify  | 1037.4     | 1091.8     | 1172.2     | 153.9 | 10.21
Other   |            | 245.5      |            |       |  2.29

Nlocal:    80.5312 ave 101 max 63 min
Histogram: 1 2 3 6 7 8 1 1 2 1
Nghost:    1855.22 ave 2327 max 1426 min
Histogram: 16 0 0 0 0 0 0 0 5 11
Neighs:    24089 ave 34661 max 16156 min
Histogram: 1 7 5 3 3 4 3 2 3 1

Total # of neighbors = 770848
Ave neighs/atom = 299.126
Neighbor list builds = 8920
Dangerous builds = 0

Please see the log.cite file for references relevant to this simulation

Total wall time: 2:58:17
