LAMMPS (7 Aug 2019)
Created orthogonal box = (0 0 0) to (18.5604 42.4 40)
  2 by 4 by 4 MPI processor grid
Reading data file ...
  orthogonal box = (0 0 -0.171776) to (18.5604 42.4 41.6292)
  2 by 4 by 4 MPI processor grid
  reading atoms ...
  2577 atoms
  reading velocities ...
  2577 velocities
  read_data CPU = 0.0112567 secs
719 atoms in group boundary
1149 atoms in group Fe
1428 atoms in group O
312 atoms in group Feb
407 atoms in group Ob
Reading potential file ffield.reax.Fe_O_C_H with DATE: 2011-02-18
Neighbor list info ...
  update every 1 steps, delay 5 steps, check yes
  max neighbors/atom: 2000, page size: 100000
  master list distance cutoff = 10.3
  ghost atom cutoff = 10.3
  binsize = 5.15, bins = 4 9 9
  2 neighbor lists, perpetual/occasional/extra = 2 0 0
  (1) pair reax/c, perpetual
      attributes: half, newton off, ghost
      pair build: half/bin/newtoff/ghost
      stencil: half/ghost/bin/3d/newtoff
      bin: standard
  (2) fix qeq/reax, perpetual, copy from (1)
      attributes: half, newton off, ghost
      pair build: copy
      stencil: none
      bin: none
Setting up Verlet run ...
  Unit style    : real
  Current step  : 0
  Time step     : 0.2
Per MPI rank memory allocation (min/avg/max) = 36.41 | 45.46 | 53.73 Mbytes
Step PotEng c_T c_avesqdispFe1 c_avesqdispFe2 c_avesqdispFe3 c_avesqdispFe4 c_avesqdispO1 c_avesqdispO2 c_avesqdispO3 c_avesqdispO4 
       0   -294261.51         1000            0            0            0            0            0            0            0            0 
      10   -294255.33    999.17419 6.0351663e-05 6.6246507e-05 6.2566715e-05 0.00018916489 0.00020487722 0.0002031843 0.00021378418 0.00062184569 
      20    -294238.2         1000 0.00024169904 0.00026598839 0.00025062631 0.00075831374 0.00081083144 0.00080962176 0.00085582468 0.0024762779 
      30   -294228.74         1000 0.00054435287 0.00060063854 0.00056470413 0.0017096955 0.0018012887 0.0018130759 0.0019223439 0.0055367085 
      40   -294226.98    999.76804 0.00096770083 0.0010702012 0.0010149116 0.0030528137 0.0031535125 0.0032013015 0.0034005403 0.0097553544 
      50   -294234.88    1000.7867 0.0015104689 0.0016733497 0.0015785829 0.0047624016 0.0048406601 0.0049563344 0.0052683486  0.015065343 
      60   -294249.89         1000 0.0021707591 0.0024079013 0.0022679191 0.0068465794 0.0068353851 0.0070548498 0.0074961417  0.021386377 
      70   -294274.09         1000 0.0029451919  0.003268682 0.0030629721 0.0092768459  0.009105981 0.0094631585  0.010045533  0.028614673 
      80   -294292.48         1000 0.0038308179 0.0042484751 0.0039622921  0.012041585   0.01161967  0.012144032  0.012876792  0.036640494 
      90   -294304.85         1000   0.00482435 0.0053396277 0.0049481331  0.015112111  0.014344155  0.015059697  0.015949246  0.045353099 
     100   -294314.84         1000  0.005921882 0.0065340625 0.0060360746  0.018492019  0.017248572  0.018176432  0.019221288  0.054646291 
     110   -294321.62    1000.8998 0.0071193464  0.007822885 0.0071937469  0.022135978  0.020305235  0.021458252  0.022650724  0.064414212 
     120   -294334.69         1000 0.0084136579 0.0091979607 0.0084454914   0.02605711  0.023486698  0.024864965  0.026198706  0.074550369 
     130    -294352.1         1000 0.0097999022   0.01064837 0.0097672219  0.030215494  0.026757406  0.028352759  0.029824838  0.084935003 
     140   -294368.33         1000  0.011273565  0.012165173  0.011164746  0.034603484  0.030086998  0.031888421  0.033491577  0.095466996 
     150   -294381.35         1000  0.012827028  0.013740959  0.012604926  0.039172913  0.033441942  0.035440956   0.03715384   0.10603674 
     160    -294388.4    1000.9103  0.014450557  0.015369203   0.01409748   0.04391724  0.036787638  0.038979308  0.040768854    0.1165358 
     170   -294394.53         1000  0.016134955  0.017043731  0.015678721  0.048857408  0.040092962  0.042470305  0.044301728   0.12686499 
     180   -294398.56    1000.5262  0.017867899  0.018755137  0.017253879  0.053876915  0.043322263  0.045872441  0.047714333   0.13690904 
     190    -294400.1    1000.7312  0.019637797  0.020497865  0.019011409   0.05914707   0.04644942  0.049151932  0.050977631   0.14657898 
     200    -294395.9    1000.1752  0.021433775  0.022265796  0.020648133  0.064347703  0.049452937  0.052277616  0.054064229   0.15579478 
     210   -294382.53         1000  0.023246402  0.024051676  0.022305923  0.069604001  0.052313762  0.055229725  0.056951643   0.16449513 
     220   -294369.46         1000  0.025068819  0.025850018  0.024094368  0.075013205  0.055015242  0.057995285   0.05962498   0.17263551 
     230    -294364.3    999.33186  0.026893862  0.027653044  0.025773889  0.080320794  0.057544776  0.060555069  0.062069045   0.18016889 
     240   -294376.53    1000.9373  0.028712499  0.029453503  0.027418916  0.085584918  0.059888564  0.062885615  0.064264602   0.18703878 
     250   -294409.62         1000  0.030519276  0.031248067  0.029108147  0.090875489  0.062035862  0.064969745  0.066198906   0.19320451 
     260   -294447.73         1000  0.032304187  0.033024361   0.03079627  0.096124818  0.063976578  0.066787154  0.067865737   0.19862947 
     270   -294481.68         1000  0.034061258  0.034771991  0.032383177   0.10121642  0.065713776  0.068328422  0.069270358   0.20331256 
     280   -294497.94         1000   0.03578422   0.03648108  0.034066344   0.10633164  0.067264745  0.069587137   0.07042134   0.20727322 
     290   -294503.08    1000.6986  0.037466948  0.038146545  0.035746144   0.11135964  0.068649863  0.070565023  0.071330861   0.21054575 
     300   -294514.69         1000  0.039103849  0.039770248  0.037372716   0.11624681  0.069872329  0.071276174  0.072003467   0.21315197 
     310   -294531.86         1000  0.040688856  0.041353351  0.039043632   0.12108584  0.070935425  0.071741736  0.072436092   0.21511325 
     320   -294549.68         1000  0.042221227  0.042901962  0.040688985   0.12581217  0.071850253  0.071985644  0.072628953   0.21646485 
     330   -294569.41         1000  0.043703853  0.044419394  0.042325483   0.13044873  0.072624061  0.072023958  0.072597221   0.21724524 
     340   -294574.71    1000.6902  0.045138914   0.04590411  0.043932937   0.13497596  0.073270368  0.071877407  0.072360718   0.21750849 
     350   -294569.88     1000.035  0.046526878  0.047353893  0.045518807   0.13939958   0.07381531  0.071570879  0.071943242   0.21732943 
     360   -294564.59    999.31283  0.047863823  0.048762402  0.047061171    0.1436874  0.074284649  0.071132763  0.071367612   0.21678502 
     370   -294563.95    999.20502  0.049150505  0.050121451  0.048575145    0.1478471  0.074695399   0.07059773  0.070650922   0.21594405 
     380   -294570.72    1000.0908  0.050391807  0.051424954  0.050037206   0.15185397  0.075055312  0.070001753   0.06981665   0.21487372 
     390   -294583.11         1000   0.05159331   0.05266825  0.051456602   0.15571816  0.075359508  0.069380195  0.068891703   0.21363141 
     400   -294588.15    1000.6547  0.052754443  0.053847375  0.052935433   0.15953725  0.075594245  0.068766362  0.067897417   0.21225802 
     410   -294587.48    1000.5519  0.053874885  0.054964126  0.054276611   0.16311562  0.075748558  0.068188542  0.066849762   0.21078686 
     420   -294570.86         1000  0.054952778  0.056021072  0.055794632   0.16676848   0.07581316  0.067678469  0.065765797   0.20925743 
     430   -294548.01         1000  0.055985094  0.057022736  0.057050388   0.17005822  0.075779734  0.067261433  0.064678716   0.20771988 
     440   -294527.33         1000  0.056970802  0.057973606  0.058257776   0.17320218  0.075642101  0.066955897  0.063628953   0.20622695 
     450   -294511.52         1000  0.057913064  0.058875352  0.059700895   0.17648931  0.075407047   0.06677226  0.062658101   0.20483741 
     460    -294498.1         1000  0.058813574   0.05973103  0.060810859   0.17935546  0.075093116  0.066713688  0.061802699    0.2036095 
     470   -294491.14    999.05091  0.059674393  0.060544358  0.062165926   0.18238468  0.074721575  0.066776842  0.061093206   0.20259162 
     480   -294485.91         1000  0.060499977  0.061313403  0.063169781   0.18498316  0.074318052  0.066950197  0.060566573   0.20183482 
     490   -294482.98    999.57956  0.061294515  0.062036105  0.064119562   0.18745018  0.073910976  0.067219668  0.060256833   0.20138748 
     500   -294472.74         1000   0.06205777  0.062714721  0.065271607    0.1900441  0.073518756  0.067575243  0.060178091   0.20127209 
     510   -294456.99         1000  0.062787933  0.063353919   0.06611531   0.19225716  0.073146856  0.068012081  0.060324314   0.20148325 
     520   -294436.64         1000   0.06348342   0.06396155  0.067070655   0.19451562  0.072799065  0.068526817  0.060677107   0.20200299 
     530   -294423.71         1000  0.064142553   0.06454647  0.067793272   0.19648229  0.072488067  0.069126258  0.061205805   0.20282013 
     540   -294411.41         1000  0.064771787  0.065119622  0.068854284   0.19874569  0.072217025  0.069806824   0.06187469   0.20389854 
     550   -294390.27         1000  0.065382014  0.065690077  0.069446015   0.20051811  0.071994149  0.070551417  0.062650866   0.20519643 
     560   -294377.15         1000  0.065980401  0.066265122  0.069966963   0.20221249  0.071833087  0.071341648   0.06350706    0.2066818 
     570   -294376.24    999.88225  0.066569666  0.066853085  0.071011252     0.204434  0.071746276  0.072159106  0.064425116    0.2083305 
     580   -294379.81    1000.3442  0.067153673  0.067462781  0.071412735   0.20602919  0.071745744  0.072986746  0.065399841   0.21013233 
     590    -294389.2         1000  0.067734192  0.068097269  0.071755913   0.20758737  0.071844183  0.073813569  0.066430582   0.21208833 
     600   -294398.66         1000  0.068310304  0.068752704  0.072684867   0.20974787  0.072059146  0.074632122   0.06751892   0.21421019 
     610   -294402.38     1000.458   0.06888023  0.069421112  0.072918387   0.21121973  0.072406055  0.075434067  0.068676283    0.2165164 
     620   -294407.43         1000  0.069441963  0.070098548  0.073654851   0.21319536  0.072889486  0.076216769  0.069906916   0.21901317 
     630   -294419.89         1000  0.069990869  0.070784518  0.073788495   0.21456388  0.073511072  0.076980651  0.071202158   0.22169388 
     640   -294441.34         1000  0.070526783  0.071475884  0.073873355   0.21587602  0.074269987  0.077730362  0.072553485   0.22455383 
     650   -294454.03         1000  0.071054764  0.072169251  0.074403426   0.21762744  0.075154381  0.078476489  0.073952061   0.22758293 
     660   -294453.89    999.99004  0.071575795  0.072867547  0.074391442   0.21883478  0.076142073  0.079227671   0.07538112   0.23075086 
     670   -294434.21         1000  0.072090361  0.073572447  0.074637506   0.22030031  0.077209317  0.079985819  0.076814875   0.23401001 
     680    -294414.5         1000  0.072603656  0.074280937  0.074535304    0.2214199  0.078336226  0.080749801  0.078231713   0.23731774 
     690   -294408.01    999.16239  0.073119335  0.074988586  0.074588672   0.22269659  0.079499952   0.08151801  0.079618254   0.24063622 
     700   -294405.97         1000  0.073637264  0.075688588  0.074416083   0.22374194  0.080670559  0.082278312  0.080955931    0.2439048 
     710    -294410.3    1000.5732  0.074157276  0.076376905  0.074220155   0.22475434  0.081823466  0.083019331  0.082227036   0.24706983 
     720   -294405.87    999.99554   0.07467877  0.077048676  0.074772217   0.22649966  0.082936807   0.08372928  0.083418831   0.25008492 
     730   -294391.14         1000  0.075203256  0.077696831  0.074554875   0.22745496  0.083993282  0.084400636  0.084526969   0.25292089 
     740   -294381.34         1000  0.075735594  0.078316678  0.074975154   0.22902743  0.084980065  0.085028244  0.085567118   0.25557543 
     750   -294373.42         1000  0.076277033  0.078908546  0.074759763   0.22994534  0.085893213   0.08560605  0.086550938    0.2580502 
     760   -294372.86    999.92623  0.076829277   0.07947311  0.074549292   0.23085168  0.086736649   0.08613045  0.087476919   0.26034402 
     770   -294377.42    1000.5368  0.077398687  0.080008332  0.074721844   0.23212886  0.087502405   0.08660704  0.088337327   0.26244677 
     780   -294375.06     1000.254  0.077985053  0.080518031  0.074535786   0.23303887  0.088186163  0.087041698  0.089122074   0.26434994 
     790   -294363.34         1000  0.078585293  0.081011745  0.074409153   0.23400619  0.088796999  0.087429873   0.08981777   0.26604464 
     800    -294356.5    999.09906  0.079196851  0.081496224  0.074258336   0.23495141  0.089350291  0.087773546  0.090417162     0.267541 
     810   -294346.91         1000   0.07981438  0.081976777  0.074128507   0.23591966  0.089861834  0.088080563  0.090912109   0.26885451 
     820   -294345.79    999.84832  0.080434139  0.082454189  0.073796999   0.23668533  0.090343878  0.088355799  0.091297262   0.26999694 
     830      -294353    1000.7703  0.081055547  0.082927348  0.073707726   0.23769062  0.090799136  0.088591782  0.091567564   0.27095848 
     840   -294356.38         1000  0.081677045  0.083396837  0.073637896   0.23871178  0.091231442  0.088782509  0.091724147    0.2717381 
     850   -294362.79     1000.808  0.082290951  0.083865503  0.073305506   0.23946196  0.091654721  0.088934498  0.091758255   0.27234747 
     860   -294383.82         1000  0.082884699   0.08433403  0.073284441   0.24050317  0.092092597  0.089060207  0.091660645   0.27281345 
     870   -294408.62         1000  0.083445823  0.084795072  0.072863524   0.24110442  0.092568465  0.089169795  0.091439983   0.27317824 
     880   -294421.92         1000  0.083972465  0.085244023  0.072901642   0.24211813  0.093087252  0.089273792  0.091113936   0.27347498 
     890   -294413.29         1000  0.084463893  0.085685031  0.072966782   0.24311571  0.093640432  0.089382007   0.09069243   0.27371487 
     900   -294386.06         1000  0.084917729  0.086120906  0.072520195   0.24355883  0.094222408  0.089498344  0.090185358   0.27390611 
     910   -294358.44         1000  0.085336176  0.086552719  0.072638384   0.24452728  0.094827703  0.089626962  0.089601673   0.27405634 
     920   -294338.24         1000  0.085726878  0.086993385  0.072104647   0.24482491  0.095439238  0.089777785  0.088947791   0.27416481 
     930   -294331.19    999.05746   0.08609766    0.0874572  0.072259735   0.24581459  0.096039208  0.089949492  0.088229027   0.27421773 
     940    -294330.7         1000  0.086450144  0.087944938  0.072424149   0.24681923  0.096614158   0.09014104  0.087448711   0.27420391 
     950   -294337.42    1000.8775  0.086788348   0.08845118   0.07228027    0.2475198  0.097142256  0.090363881  0.086609339   0.27411548 
     960   -294341.56         1000   0.08711234  0.088970437  0.072469671   0.24855245  0.097599566   0.09063436   0.08571548   0.27394941 
     970   -294338.42    999.63502  0.087417552  0.089499488  0.072585831   0.24950287   0.09797028  0.090964476  0.084775692   0.27371045 
     980   -294331.54         1000  0.087700789    0.0900363  0.072788529   0.25052562  0.098250972  0.091357163  0.083800671   0.27340881 
     990   -294327.45    999.49224  0.087963144  0.090574487  0.073000654   0.25153829  0.098453966  0.091799002  0.082800373   0.27305334 
    1000   -294325.37    999.25866  0.088209461  0.091104002  0.073190731   0.25250419  0.098591969  0.092265852  0.081791088   0.27264891 
    1010   -294325.39    999.30831  0.088447897   0.09161425  0.073424659   0.25348681   0.09868467  0.092729444  0.080793787    0.2722079 
    1020   -294318.76         1000  0.088685672  0.092097058   0.07366697    0.2544497  0.098761224  0.093171844   0.07982769   0.27176076 
    1030    -294305.4         1000  0.088927277  0.092549825  0.073974356   0.25545146  0.098842113  0.093587074    0.0789061   0.27133529 
    1040   -294300.37    999.37038  0.089176566  0.092973327  0.074224171   0.25637406  0.098931951  0.093968129  0.078039408   0.27093949 
    1050   -294298.18    999.10398   0.08943556  0.093372765  0.074553745   0.25736207  0.099030277  0.094302503  0.077235816    0.2705686 
    1060    -294291.1         1000  0.089704872  0.093753036   0.07482263   0.25828054  0.099129264  0.094580137  0.076492675   0.27020208 
    1070   -294280.01         1000  0.089988818   0.09411736  0.075101775   0.25920795   0.09922091   0.09479884  0.075801791   0.26982154 
    1080   -294266.83         1000  0.090292416  0.094461686  0.075408193    0.2601623  0.099306081  0.094955733  0.075160538   0.26942235 
    1090   -294256.88         1000  0.090615992  0.094782744  0.075701316   0.26110005  0.099389845  0.095037699  0.074572357    0.2689999 
    1100   -294252.29    999.40865   0.09095751  0.095079744    0.0759176   0.26195485   0.09947719  0.095030584  0.074038207   0.26854598 
    1110   -294256.92    999.97939  0.091313356  0.095354315  0.076225231    0.2628929  0.099574016  0.094924831  0.073554841   0.26805369 
    1120   -294261.59    1000.5737  0.091679772  0.095609216  0.076540622   0.26382961  0.099682335  0.094715679  0.073119679   0.26751769 
    1130   -294261.58    1000.5499  0.092056918  0.095843444  0.076694209   0.26459457  0.099804755  0.094405745  0.072739052   0.26694955 
    1140   -294261.44    1000.5064  0.092446105  0.096053159  0.077038331   0.26553759   0.09995051  0.093999586  0.072423761   0.26637386 
    1150   -294253.69    999.50129  0.092844115  0.096236341  0.077233142    0.2663136   0.10011406    0.0935082  0.072176356   0.26579862 
    1160   -294237.88         1000  0.093247097   0.09639512  0.077579221   0.26722144   0.10027982  0.092954707  0.071994388   0.26522892 
    1170   -294219.11         1000  0.093656442  0.096530718  0.077795969   0.26798313   0.10041935  0.092377449  0.071873786   0.26467058 
    1180   -294215.19    999.45571  0.094075189  0.096645274  0.078117517   0.26883798   0.10049869  0.091815734  0.071808587   0.26412301 
    1190   -294217.39    999.71576  0.094506301  0.096740091  0.078304201   0.26955059   0.10050747  0.091294926  0.071796028   0.26359842 
    1200   -294226.03    1000.8186  0.094950671  0.096818767  0.078585676   0.27035511   0.10044787  0.090825592  0.071840169   0.26311363 
    1210   -294243.35         1000  0.095402327  0.096884781  0.078841064   0.27112817   0.10032547  0.090411412  0.071950654   0.26268753 
    1220   -294258.27         1000  0.095854593  0.096944121  0.078936854   0.27173557   0.10014264  0.090064889  0.072135752   0.26234328 
    1230   -294273.27         1000  0.096304563  0.097006815  0.079133275   0.27244465  0.099903592  0.089803371  0.072407013   0.26211398 
    1240    -294301.9         1000  0.096750336  0.097083757  0.079139581   0.27297367  0.099617656  0.089621071  0.072777587   0.26201631 
    1250    -294340.9         1000  0.097190713   0.09718301  0.079279272     0.273653  0.099301753  0.089503235  0.073261062   0.26206605 
    1260   -294375.07         1000  0.097628247  0.097301366  0.079400372   0.27432999  0.098981322  0.089441861  0.073871841   0.26229502 
    1270   -294386.78         1000  0.098064515  0.097435562  0.079359246   0.27485932  0.098662736  0.089437579   0.07461971   0.26272003 
    1280   -294378.81         1000  0.098499348  0.097580049   0.07943062   0.27551002  0.098352867  0.089504723  0.075509303   0.26336689 
    1290   -294359.81         1000  0.098932202  0.097728858  0.079473721   0.27613478  0.098062348  0.089665384  0.076548867    0.2642766 
    1300   -294340.61         1000  0.099362702  0.097875311  0.079378487    0.2766165  0.097800177  0.089930131  0.077744885   0.26547519 
    1310   -294336.89    999.48275  0.099789773   0.09801716  0.079359728   0.27716666  0.097572161  0.090298422  0.079089637   0.26696022 
    1320   -294350.87         1000   0.10021095   0.09815356  0.079237532   0.27760204  0.097376275  0.090765369  0.080568152    0.2687098 
    1330   -294380.35         1000   0.10062251    0.0982845  0.079163516   0.27807053  0.097213433   0.09131638  0.082161681    0.2706915 
    1340    -294404.6         1000   0.10101966  0.098415855  0.079073482   0.27850899  0.097085077  0.091931172  0.083842261   0.27285851 
    1350   -294419.01         1000   0.10139975  0.098560934  0.078920319     0.278881  0.096986626  0.092586443  0.085573322   0.27514639 
    1360   -294430.63         1000   0.10176185  0.098727317  0.078808428    0.2792976  0.096919715   0.09325439  0.087313355   0.27748746 
    1370   -294439.93         1000   0.10210075  0.098917041  0.078701897   0.27971969  0.096889359  0.093914581  0.089024389   0.27982833 
    1380   -294446.22    1000.8827    0.1024045  0.099128692  0.078587428   0.28012062  0.096894518  0.094558641  0.090673364   0.28212652 
    1390   -294442.72    1000.4669   0.10266557  0.099361591  0.078502864   0.28053003  0.096930209  0.095182289  0.092233453   0.28434595 
    1400   -294441.17    1000.3084   0.10288201  0.099613935  0.078437515   0.28093346  0.096992007  0.095774529  0.093687176   0.28645371 
    1410   -294436.93    999.74784   0.10305366  0.099884983  0.078387179   0.28132583  0.097072759  0.096318083  0.095019655    0.2884105 
    1420   -294433.25    999.27756   0.10318247   0.10016946  0.078346521   0.28169844     0.097162  0.096798364   0.09621911   0.29017947 
    1430   -294422.82         1000   0.10327028   0.10045578   0.07834163    0.2820677  0.097254119  0.097201745   0.09727797   0.29173383 
    1440   -294419.79    999.63178   0.10331863   0.10073517  0.078334071   0.28238787   0.09735118  0.097531936  0.098191258   0.29307437 
    1450   -294421.16    999.81847   0.10333171   0.10100088  0.078338704    0.2826713  0.097459441  0.097810583  0.098952594   0.29422262 
    1460   -294421.56    999.89154   0.10331381   0.10123804  0.078436457   0.28298831  0.097587191  0.098047697  0.099571782   0.29520667 
    1470    -294416.2    999.20417   0.10326898   0.10143984   0.07847594   0.28318476  0.097745658  0.098258804   0.10005726   0.29606172 
    1480   -294397.04         1000   0.10320153   0.10160464  0.078558437    0.2833646  0.097949747  0.098456679   0.10041983   0.29682626 
    1490   -294373.33         1000   0.10311575   0.10173391  0.078641165   0.28349082  0.098214755  0.098648179   0.10067243   0.29753537 
    1500   -294352.33         1000   0.10301427   0.10183302  0.078740035   0.28358733  0.098552812  0.098844953   0.10082675   0.29822451 
    1510   -294337.54         1000   0.10289914   0.10190465  0.078757677   0.28356147  0.098971487  0.099057556   0.10089843   0.29892747 
    1520   -294326.03         1000   0.10277346    0.1019478   0.07886175   0.28358301  0.099470861   0.09929009   0.10090656   0.29966751 
    1530    -294317.5         1000   0.10263835   0.10196345  0.078965145   0.28356694     0.100046  0.099537283   0.10086857   0.30045185 
    1540   -294299.91         1000    0.1024973   0.10196555  0.079009421   0.28347228   0.10068955  0.099782822   0.10079602    0.3012684 
    1550   -294279.34         1000   0.10235776   0.10198085  0.079099272   0.28343789   0.10139304   0.10001118   0.10068986   0.30209408 
    1560   -294265.89         1000   0.10222491    0.1020194  0.079136929   0.28338124   0.10213926    0.1002119   0.10054002   0.30289119 
    1570   -294260.61    999.32458   0.10209849   0.10208137  0.079216953   0.28339681   0.10290293     0.100389   0.10034049   0.30363243 
    1580   -294259.17    999.12002   0.10197552   0.10216691  0.079296415   0.28343885   0.10365629   0.10055811   0.10009366   0.30430807 
    1590   -294266.71    1000.0979   0.10185361   0.10227445  0.079324207   0.28345226   0.10437028   0.10074797  0.099804642   0.30492289 
    1600   -294269.67    1000.4939   0.10173981   0.10240057  0.079406848   0.28354722   0.10502073   0.10097131   0.09949048   0.30548252 
    1610   -294263.26    999.65238   0.10164416    0.1025429  0.079439529   0.28362659   0.10559515   0.10121916  0.099171322   0.30598563 
    1620    -294250.7         1000   0.10157185   0.10269711  0.079540189   0.28380914   0.10609164    0.1014708  0.098869521   0.30643196 
    1630    -294235.8         1000   0.10152212   0.10286022  0.079653258    0.2840356   0.10652076   0.10170722  0.098608818   0.30683679 
    1640   -294232.88    999.62289   0.10149179   0.10303217   0.07984622   0.28437019   0.10690446   0.10191634  0.098392139   0.30721294 
    1650   -294242.64    1000.8907    0.1014801   0.10321528  0.079987569   0.28468294   0.10727657   0.10208203  0.098217495    0.3075761 
    1660   -294248.19         1000   0.10148806   0.10341636  0.080139209   0.28504362   0.10765958   0.10219747  0.098090723   0.30794778 
    1670   -294248.87    1000.1154   0.10150996   0.10364156   0.08046279   0.28561431   0.10806216   0.10227208  0.098009602   0.30834384 
    1680   -294243.17    999.36175    0.1015374   0.10389774  0.080630947   0.28606609   0.10848541   0.10232115  0.097970683   0.30877724 
    1690   -294234.32         1000   0.10156599   0.10419435  0.081018118   0.28677845   0.10892451   0.10235432  0.097977917   0.30925675 
    1700   -294228.47    999.21488   0.10159436   0.10453295  0.081194598    0.2873219   0.10937473   0.10237753  0.098042501   0.30979476 
    1710   -294229.53    999.31467   0.10162283   0.10490841  0.081368339   0.28789959   0.10983392   0.10239277  0.098178472   0.31040516 
    1720   -294229.19    999.26309   0.10165111   0.10531724  0.081741709   0.28871006   0.11029613   0.10240307  0.098397396    0.3110966 
    1730   -294227.18         1000   0.10167828   0.10575459  0.081912412   0.28934528   0.11075576   0.10241277  0.098702222   0.31187076 
    1740   -294231.14    1000.5106    0.1017049   0.10621503  0.082085302   0.29000523   0.11121489   0.10242355  0.099082322   0.31272077 
    1750   -294226.97    999.93282   0.10172966   0.10669371  0.082424478   0.29084785   0.11167475   0.10242777  0.099527468   0.31362998 
    1760   -294212.99         1000   0.10175289   0.10717558   0.08262708   0.29155555   0.11213118   0.10240662   0.10003579   0.31457358 
    1770   -294210.97    999.69991   0.10177548   0.10764874  0.083019239   0.29244346   0.11256548   0.10235254   0.10059683   0.31551484 
    1780   -294217.97    1000.5961   0.10179507   0.10810866  0.083278657   0.29318239    0.1129525   0.10227962   0.10118632   0.31641844 
    1790   -294224.94         1000    0.1018096   0.10855338  0.083570463   0.29393344   0.11327273   0.10220749   0.10178264   0.31726286 
    1800   -294239.13         1000   0.10181731   0.10898039  0.084112698   0.29491039   0.11351257   0.10215445   0.10236598     0.318033 
    1810   -294266.42         1000    0.1018176   0.10938986  0.084457272   0.29566473   0.11365863   0.10213178   0.10292007   0.31871048 
    1820   -294287.33         1000   0.10181313   0.10978405  0.085085627    0.2966828   0.11370333   0.10214478   0.10342848    0.3192766 
    1830   -294312.89         1000   0.10180576   0.11016127  0.085457032   0.29742406   0.11365677   0.10219593   0.10387308   0.31972577 
    1840   -294339.34         1000   0.10179661    0.1105171  0.085835966   0.29814967   0.11353689   0.10229655   0.10424484   0.32007829 
    1850   -294354.51         1000   0.10178803   0.11084644  0.086414258   0.29904873   0.11336421   0.10246014   0.10454488   0.32036924 
    1860   -294360.04    1000.7217   0.10178423   0.11114342  0.086798174   0.29972582   0.11316078   0.10268638   0.10478658   0.32063374 
    1870   -294366.03         1000   0.10178837   0.11140219  0.087188981   0.30037954   0.11294989    0.1029613   0.10499385   0.32090504 
    1880   -294370.23    1000.5427   0.10180092   0.11161318  0.087656182   0.30107028   0.11275211   0.10326866   0.10518478   0.32120555 
    1890   -294367.29    1000.1632   0.10182108   0.11176898  0.088069106   0.30165916   0.11258013   0.10359132   0.10537373   0.32154519 
    1900   -294356.23         1000   0.10184668   0.11187078  0.088445065   0.30216253   0.11243486   0.10391672   0.10556588   0.32191745 
    1910   -294336.03         1000   0.10187561   0.11193001  0.088859728   0.30266536   0.11230361   0.10424625   0.10575291   0.32230278 
    1920   -294308.76         1000   0.10190835   0.11195651  0.089262432   0.30312728   0.11216967   0.10458174   0.10593502   0.32268643 
    1930   -294276.83         1000    0.1019417   0.11195778   0.08955813   0.30345762    0.1120162   0.10491727   0.10612577   0.32305925 
    1940   -294238.93         1000   0.10197108   0.11193816  0.089922564   0.30383181   0.11182561   0.10526566   0.10633084   0.32342212 
    1950   -294203.41         1000   0.10199648   0.11190255    0.0901104   0.30400943   0.11159276   0.10564277   0.10654629   0.32378182 
    1960   -294170.99         1000   0.10202002   0.11185304  0.090416809   0.30428986   0.11132211   0.10605791   0.10677402   0.32415404 
    1970   -294157.23         1000   0.10204007   0.11178799  0.090687387   0.30451544     0.111015   0.10650479   0.10703026   0.32455005 
    1980   -294157.97    1000.0941    0.1020557   0.11170969  0.090645074   0.30441046   0.11067505     0.106973   0.10731278   0.32496083 
    1990   -294166.85         1000   0.10206963   0.11162093  0.090840393   0.30453094   0.11031199   0.10744205    0.1076128   0.32536684 
    2000    -294184.4         1000   0.10208233   0.11151986  0.090672323   0.30427451    0.1099407   0.10788393   0.10791812   0.32574275 
    2010   -294205.92         1000   0.10209134   0.11140683  0.090836064   0.30433424    0.1095849   0.10827175   0.10821034   0.32606699 
    2020   -294235.02         1000   0.10209319   0.11128732  0.090996841   0.30437735   0.10926783   0.10858904   0.10846685   0.32632372 
    2030   -294266.74         1000   0.10208857   0.11116959  0.090779668   0.30403783   0.10899352   0.10884203   0.10866231   0.32649785 
    2040   -294291.73         1000   0.10207769    0.1110638  0.090949598   0.30409109   0.10875576   0.10905337    0.1087708   0.32657993 
    2050   -294312.49         1000   0.10205776   0.11097336  0.090803522   0.30383464   0.10855966   0.10924738   0.10876988   0.32657691 
    2060   -294327.35         1000   0.10202692   0.11089737  0.090967235   0.30389152   0.10841928   0.10944414   0.10863556   0.32649898 
    2070   -294327.71    1000.0108    0.1019855   0.11083685  0.091122242   0.30394459   0.10834226   0.10965511   0.10835241   0.32634978 
    2080   -294306.85         1000   0.10193406   0.11079584  0.091062048   0.30379195   0.10833055   0.10988213   0.10792507   0.32613776 
    2090   -294293.29         1000   0.10187253   0.11078105  0.091192181   0.30384577   0.10838677   0.11012675   0.10736165   0.32587518 
    2100   -294286.83    999.12912   0.10180357   0.11079704  0.091309561   0.30391018    0.1085188   0.11038788   0.10667623   0.32558292 
    2110   -294280.85         1000   0.10173358   0.11084126  0.091338739   0.30391358   0.10871948    0.1106571   0.10590323   0.32527981 
    2120   -294278.06    999.61022   0.10166555   0.11090982  0.091452437   0.30402781   0.10895755   0.11093055   0.10507106   0.32495916 
    2130   -294273.73    999.03162    0.1016025   0.11100071  0.091540717   0.30414394   0.10920472   0.11119746   0.10419559   0.32459777 
    2140   -294264.19         1000   0.10154875   0.11111211  0.091641492   0.30430235   0.10943392   0.11144009   0.10328985   0.32416386 
    2150   -294251.01         1000   0.10150982   0.11124131  0.091729113   0.30448025   0.10962262   0.11164243   0.10236797   0.32363302 
    2160    -294242.4         1000   0.10149308   0.11139064  0.091802999   0.30468672   0.10975089    0.1117978   0.10144145   0.32299014 
    2170   -294231.84         1000   0.10150581    0.1115658  0.091859971   0.30493159   0.10980446   0.11190751   0.10051436   0.32222634 
    2180   -294219.76         1000   0.10155423   0.11176703  0.091920903   0.30524217   0.10977874   0.11197192  0.099588437   0.32133909 
    2190   -294213.99    999.24265   0.10164144   0.11199052  0.091961937    0.3055939    0.1096708    0.1119917  0.098668931   0.32033143 
    2200   -294205.97         1000   0.10176411   0.11222804  0.091992795   0.30598494   0.10947885   0.11196956  0.097768504   0.31921692 
    2210   -294188.79         1000   0.10191536   0.11246838  0.092036788   0.30642053    0.1092052   0.11191038  0.096899902   0.31801549 
    2220   -294176.89         1000   0.10208576   0.11269509  0.092048158   0.30682901   0.10885971   0.11181377  0.096083979   0.31675745 
    2230   -294172.43    999.42081   0.10227146    0.1128941  0.092095567   0.30726112   0.10845005   0.11166808  0.095346888   0.31546502 
    2240      -294179    1000.2594   0.10247467   0.11306266  0.092096346   0.30763367   0.10798613   0.11145572   0.09469932   0.31414117 
    2250   -294199.49         1000   0.10270147   0.11320051   0.09208898   0.30799097   0.10746641   0.11116614  0.094141313   0.31277386 
    2260   -294226.22         1000   0.10295687   0.11330729  0.092100973   0.30836513   0.10689842   0.11079723  0.093668806   0.31136446 
    2270   -294237.65         1000   0.10324239   0.11338379  0.092067836   0.30869401   0.10629339   0.11036189   0.09326851    0.3099238 
    2280    -294235.3    999.73032   0.10355757   0.11343497  0.092013919   0.30900646   0.10565047   0.10987926  0.092930525   0.30846025 
    2290   -294233.25    999.46269   0.10389993   0.11346471  0.092064191   0.30942883   0.10496111   0.10936895  0.092666299   0.30699636 
    2300   -294235.61    999.81641   0.10426305   0.11347201  0.091956709   0.30969177   0.10422103   0.10885405  0.092506583   0.30558166 
    2310   -294252.89         1000    0.1046405   0.11345714  0.092065191   0.31016283   0.10342282   0.10835526  0.092482823    0.3042609 
    2320   -294279.53         1000   0.10502603   0.11342126  0.091907371   0.31035466   0.10255751   0.10789791  0.092610201   0.30306562 
    2330   -294305.99         1000   0.10540836   0.11336596  0.091735311   0.31050963    0.1016207   0.10751169  0.092895564   0.30202796 
    2340   -294339.94         1000   0.10577996   0.11329315   0.09182337   0.31089648   0.10061596   0.10721344  0.093342776   0.30117218 
    2350   -294378.59         1000    0.1061382    0.1132036  0.091644193     0.310986  0.099548127   0.10701399  0.093941807   0.30050392 
    2360   -294413.45         1000   0.10648063   0.11309326  0.091468337   0.31104222  0.098435131   0.10691673  0.094673617   0.30002548 
    2370   -294435.66         1000    0.1068054   0.11295509  0.091550681   0.31131116  0.097312114   0.10691122  0.095517938   0.29974127 
    2380   -294442.14    1000.8246   0.10711032   0.11278675  0.091404766   0.31130184  0.096204898   0.10698362  0.096450965   0.29963948 
    2390   -294442.25    1000.8201   0.10739317    0.1125885  0.091451346   0.31143301  0.095132322   0.10712958  0.097445727   0.29970763 
    2400    -294447.6         1000   0.10765238   0.11236353  0.091363892    0.3113798  0.094114242   0.10734818  0.098471853   0.29993428 
    2410   -294459.43         1000   0.10788151   0.11212215  0.091299506   0.31130316  0.093159005   0.10763032  0.099498471   0.30028779 
    2420   -294470.22         1000   0.10807511    0.1118761   0.09130491   0.31125612  0.092263058   0.10796201   0.10050361   0.30072868 
    2430   -294475.75    1000.7221   0.10823101   0.11162912  0.091266912   0.31112704  0.091420621   0.10832128   0.10146825   0.30121015 
    2440    -294475.8    1000.7472   0.10834928   0.11138033  0.091172638   0.31090224  0.090632924   0.10867861   0.10237938   0.30169092 
    2450   -294472.02    1000.2138   0.10842992   0.11112601  0.091132979   0.31068891  0.089908506   0.10900042   0.10322531   0.30213424 
    2460   -294459.62         1000   0.10847058   0.11085906  0.091084166    0.3104138  0.089259474   0.10925725   0.10399833   0.30251506 
    2470   -294442.09         1000    0.1084716   0.11057288  0.090902238   0.30994671  0.088689786   0.10942963   0.10469663   0.30281604 
    2480   -294425.92         1000   0.10843485   0.11026109  0.090841676   0.30953762  0.088195567    0.1095098   0.10532158   0.30302695 
    2490   -294411.75         1000    0.1083566   0.10991293  0.090635615   0.30890514  0.087777226   0.10949876   0.10587588   0.30315186 
    2500   -294402.31         1000   0.10823649   0.10952279  0.090564298   0.30832358  0.087431049   0.10939952   0.10636157   0.30319214 
    2510    -294388.9         1000    0.1080777   0.10908769  0.090492616   0.30765801  0.087156535   0.10921533   0.10678576   0.30315763 
    2520   -294378.24         1000   0.10788496   0.10860528  0.090287618   0.30677785  0.086949134   0.10896028   0.10716214   0.30307155 
    2530   -294379.51    1000.1809   0.10766191   0.10807539  0.090214762   0.30595206  0.086804336   0.10865788   0.10750542   0.30296763 
    2540    -294378.7    1000.1116   0.10740928   0.10750152  0.089981645   0.30489245  0.086732277   0.10833512   0.10783055   0.30289795 
    2550   -294377.41    999.98127   0.10712496   0.10688735  0.089895459   0.30390777  0.086748495   0.10801441   0.10816272   0.30292562 
    2560   -294366.86         1000    0.1068148   0.10624154  0.089804673   0.30286101  0.086842785    0.1077175   0.10852642   0.30308671 
    2570   -294350.69         1000   0.10648128   0.10556937  0.089575466   0.30162611  0.087009247   0.10746884   0.10893619   0.30341428 
    2580   -294343.98    999.12032   0.10612773   0.10487404  0.089487603   0.30048938  0.087250586   0.10728002   0.10939631   0.30392691 
    2590   -294350.15    999.92528   0.10575768   0.10416218  0.089312165   0.29923203  0.087566769   0.10715589   0.10990211   0.30462476 
    2600   -294360.24         1000   0.10537581   0.10343924  0.089230149    0.2980452  0.087951628   0.10710363   0.11043433   0.30548959 
    2610    -294359.8      999.958   0.10498935   0.10270829  0.089075673   0.29677331  0.088395718   0.10712341   0.11095859   0.30647771 
    2620   -294356.88    999.59179   0.10460057   0.10197352  0.088994181   0.29556827  0.088892656   0.10720544   0.11144058   0.30753868 
    2630   -294349.55         1000   0.10420919   0.10124055  0.088912254   0.29436199  0.089443239   0.10733339   0.11185234   0.30862897 
    2640   -294339.16         1000   0.10381843   0.10051032  0.088762258   0.29309101  0.090058462   0.10747901   0.11217832   0.30971579 
    2650   -294334.75    999.43072    0.1034333  0.099793024  0.088665594   0.29189192   0.09074761   0.10762036   0.11240798   0.31077594 
    2660   -294333.38    999.26302   0.10305293  0.099104777  0.088482833   0.29064054  0.091512036   0.10774655   0.11253371    0.3117923 
    2670   -294341.41    1000.3371   0.10266899  0.098454786  0.088340741   0.28946451  0.092344651   0.10784396   0.11255475   0.31274337 
    2680    -294344.2     1000.709    0.1022735  0.097845954  0.088126235   0.28824569  0.093227624   0.10789992   0.11246969   0.31359723 
    2690   -294340.33    1000.2473   0.10186808  0.097278126  0.087934631   0.28708084  0.094135348   0.10790726   0.11227751   0.31432012 
    2700   -294339.77    1000.1577   0.10146386  0.096746981  0.087683788   0.28589462  0.095035162   0.10785027   0.11199603   0.31488146 
    2710   -294337.55    999.86943   0.10106903  0.096249784  0.087445951   0.28476476  0.095902411   0.10771227   0.11164831   0.31526299 
    2720      -294334    999.39742   0.10069301  0.095785278  0.087194221   0.28367251  0.096718738   0.10748135   0.11125632    0.3154564 
    2730   -294328.23         1000   0.10034447  0.095349701  0.087039878   0.28273405  0.097471791   0.10715521   0.11083517   0.31546217 
    2740   -294330.07    1000.1974   0.10002882  0.094939421  0.086762745   0.28173099  0.098156745   0.10674713   0.11038923    0.3152931 
    2750   -294329.58    1000.1259  0.099751148   0.09455543   0.08660375   0.28091033  0.098769996   0.10627611   0.10991946   0.31496557 
    2760   -294320.48         1000  0.099511527  0.094199651  0.086306383   0.28001756  0.099309493   0.10576125   0.10942628   0.31449702 
    2770    -294294.7         1000  0.099305655  0.093872032  0.086053182   0.27923087  0.099777037   0.10523014   0.10890633    0.3139135 
    2780   -294262.88         1000  0.099128923  0.093571348   0.08573978   0.27844005   0.10017759   0.10471379    0.1083559   0.31324728 
    2790   -294242.43         1000  0.098978129  0.093297347  0.085418958   0.27769443   0.10051472     0.104241    0.1077766   0.31253232 
    2800   -294236.08    999.15685  0.098851961  0.093051985  0.085049513   0.27695346   0.10078877   0.10382673   0.10717674   0.31179223 
    2810   -294238.66     999.5104  0.098750264  0.092842204  0.084728129    0.2763206   0.10100153   0.10346682   0.10657154   0.31103989 
    2820    -294240.7    999.76803  0.098668059  0.092679442  0.084287973   0.27563547   0.10116288   0.10316454   0.10596011   0.31028753 
    2830   -294230.04         1000  0.098601682   0.09257383  0.083984778   0.27516029   0.10127796   0.10292078   0.10533924   0.30953797 
    2840   -294216.87         1000  0.098550696  0.092524382  0.083692237   0.27476731   0.10134784    0.1027157   0.10471665   0.30878019 
    2850   -294210.78    999.17152  0.098516039  0.092524166  0.083236198    0.2742764    0.1013798   0.10252536   0.10409963   0.30800479 
    2860   -294210.23    999.05587  0.098499501  0.092566576  0.082970534   0.27403661   0.10139021   0.10232699   0.10349392   0.30721113 
    2870   -294209.92         1000  0.098502383  0.092648279  0.082590384   0.27374105   0.10139064   0.10209785   0.10289784   0.30638633 
    2880   -294209.26     999.9314  0.098527705  0.092765459  0.082372425   0.27366559   0.10138421   0.10181426   0.10230807   0.30550655 
    2890   -294221.28         1000  0.098582732  0.092914403   0.08218776    0.2736849   0.10136363   0.10146286   0.10172549   0.30455198 
    2900   -294246.69         1000  0.098672533  0.093089775  0.082010808   0.27377312   0.10131438   0.10104914   0.10115246   0.30351598 
    2910   -294279.65         1000  0.098797161  0.093281568  0.081917707   0.27399644   0.10121624   0.10057741   0.10059888   0.30239254 
    2920    -294316.1         1000  0.098954243  0.093479646  0.081883583   0.27431747   0.10105409   0.10005148   0.10007568   0.30118124 
    2930   -294351.85         1000  0.099140311  0.093677346  0.081907136   0.27472479   0.10082334   0.09949245  0.099583514   0.29989931 
    2940   -294387.41         1000  0.099351656  0.093869004  0.081983041    0.2752037   0.10052469  0.098927164  0.099126987   0.29857884 
    2950   -294418.41         1000  0.099585574  0.094052549  0.082121364   0.27575949   0.10015629  0.098379518   0.09871853   0.29725433 
    2960   -294453.15         1000  0.099839144  0.094228629   0.08231498   0.27638275   0.09971392  0.097873535  0.098374663   0.29596212 
    2970   -294487.94         1000   0.10010669  0.094390781   0.08257772   0.27707519  0.099198588  0.097424909  0.098109902    0.2947334 
    2980   -294513.57         1000   0.10037894  0.094533279   0.08290808    0.2778203  0.098613523  0.097047961  0.097923856   0.29358534 
    2990   -294531.15         1000   0.10064923  0.094650929  0.083293617   0.27859378  0.097963268  0.096759822  0.097801797   0.29252489 
    3000   -294546.18         1000    0.1009112  0.094738117    0.0837184   0.27936771  0.097257134  0.096582742    0.0977385   0.29157838 
    3010   -294563.56         1000   0.10116072  0.094792127  0.084190143   0.28014299  0.096517727  0.096542221  0.097729192   0.29078914 
    3020   -294573.95         1000   0.10139654  0.094816213  0.084684698   0.28089745  0.095777667  0.096655655  0.097764616   0.29019794 
    3030   -294565.99         1000   0.10162162  0.094815579  0.085189625   0.28162683   0.09506496  0.096925526  0.097832761   0.28982325 
    3040   -294550.78         1000    0.1018408  0.094792012  0.085698894   0.28233171  0.094393291  0.097341323  0.097914501   0.28964912 
    3050   -294512.94         1000    0.1020554  0.094748288  0.086201758   0.28300545  0.093775232  0.097878395  0.097997624   0.28965125 
    3060   -294461.37         1000   0.10226124   0.09467889   0.08669221   0.28363234  0.093222899  0.098488267  0.098082443   0.28979361 
    3070   -294426.45         1000   0.10245441  0.094578436    0.0871672   0.28420005  0.092746637  0.099124274  0.098160615   0.29003153 
    3080   -294410.85         1000    0.1026377  0.094450386  0.087619286   0.28470737  0.092351458  0.099751298  0.098214946    0.2903177 
    3090   -294412.77    1000.2308   0.10281636  0.094300162  0.088042754   0.28515928  0.092034552   0.10033788   0.09823597    0.2906084 
    3100   -294421.16         1000   0.10299286  0.094131684  0.088439437   0.28556398  0.091789788   0.10086364  0.098216855   0.29087028 
    3110   -294436.45         1000   0.10316998  0.093947624  0.088791709   0.28590932  0.091615625   0.10131532  0.098154208   0.29108515 
    3120   -294447.95         1000   0.10334906  0.093750153  0.089153897   0.28625311   0.09151282   0.10169077  0.098054547   0.29125813 
    3130   -294455.61     1000.971   0.10352757   0.09354134  0.089445104   0.28651402  0.091489415   0.10198743  0.097928672   0.29140551 
    3140   -294469.93         1000   0.10370189  0.093325148  0.089713728   0.28674077  0.091556722   0.10218682  0.097783836   0.29152738 
    3150   -294484.63         1000   0.10386822  0.093106997  0.090062918   0.28703813  0.091722766   0.10226446  0.097633503   0.29162073 
    3160   -294494.36         1000   0.10402113  0.092891795  0.090302075     0.287215  0.091991267   0.10220957  0.097501893   0.29170273 
    3170   -294506.78         1000   0.10414866  0.092682708  0.090520776   0.28735215  0.092369913   0.10202931  0.097411607   0.29181083 
    3180   -294535.19         1000   0.10424131  0.092479881  0.090738606   0.28745979  0.092862524   0.10174105  0.097380477   0.29198405 
    3190   -294566.82         1000   0.10429911  0.092282891  0.090941124   0.28752313  0.093453434   0.10137443  0.097424557   0.29225242 
    3200    -294594.1         1000   0.10432588  0.092096014  0.091055305    0.2874772  0.094122613   0.10096155  0.097547744   0.29263191 
    3210   -294607.69         1000   0.10432973  0.091925781  0.091215571   0.28747108  0.094849393    0.1005285  0.097737198   0.29311509 
    3220   -294612.44    1000.6224   0.10431774  0.091773744  0.091348955   0.28744044  0.095608199   0.10009017  0.097981775   0.29368014 
    3230   -294613.04    1000.7266   0.10429278  0.091642032  0.091499815   0.28743463  0.096376163  0.099658363  0.098280396   0.29431492 
    3240   -294603.69    999.53742   0.10425695  0.091533549  0.091657366   0.28744786  0.097135704  0.099257498  0.098625699    0.2950189 
    3250   -294587.25         1000   0.10421662  0.091445909  0.091859447   0.28752198  0.097862552  0.098921609  0.099001536    0.2957857 
    3260   -294563.84         1000   0.10417632  0.091373597  0.092030808   0.28758072  0.098524951   0.09868369  0.099389529   0.29659817 
    3270   -294540.25         1000   0.10414278  0.091315097   0.09228393    0.2877418  0.099097023  0.098570911  0.099774206   0.29744214 
    3280   -294520.86         1000    0.1041257  0.091267984  0.092455966   0.28784965  0.099563473  0.098589997   0.10014907   0.29830254 
    3290    -294498.1         1000    0.1041289  0.091229409  0.092628316   0.28798662  0.099918355  0.098729317   0.10051027   0.29915794 
    3300   -294465.75         1000   0.10415387  0.091195872  0.092722645   0.28807239   0.10016619  0.098963905   0.10084998   0.29998007 
    3310   -294440.15         1000   0.10420136  0.091158532  0.092912617   0.28827251   0.10032494   0.09925174    0.1011618   0.30073848 
    3320   -294427.57         1000   0.10427563  0.091117162  0.093037783   0.28843058   0.10042036  0.099549139   0.10142669   0.30139619 
    3330   -294421.63    999.19803   0.10438129  0.091078161  0.093270184   0.28872964   0.10047753   0.09981871   0.10161816   0.30191441 
    3340   -294413.63         1000   0.10451506   0.09104485  0.093521446   0.28908136   0.10052245   0.10002689   0.10171769   0.30226703 
    3350   -294409.25     999.4058   0.10466982  0.091027464  0.093720437   0.28941772   0.10057025   0.10015556   0.10171579   0.30244159 
    3360   -294396.87         1000   0.10483831  0.091040212  0.093989558   0.28986808   0.10062508   0.10020181   0.10161188   0.30243877 
    3370    -294377.4         1000   0.10501476  0.091093049  0.094258122   0.29036593   0.10068803   0.10016679    0.1014046   0.30225941 
    3380   -294346.78         1000   0.10519856  0.091190108  0.094490164   0.29087884   0.10076191   0.10006037   0.10109323   0.30191551 
    3390   -294316.63         1000   0.10539057  0.091332168  0.094748897   0.29147163   0.10085149  0.099907069   0.10068353   0.30144208 
    3400   -294288.15         1000   0.10559367  0.091518045  0.095009369   0.29212108   0.10097036  0.099742848   0.10018414   0.30089735 
    3410   -294248.78         1000   0.10581549  0.091742056  0.095265244   0.29282279    0.1011376  0.099587839   0.09959748   0.30032292 
    3420   -294215.52         1000   0.10606436  0.091997134  0.095526325   0.29358782   0.10135997  0.099454765  0.098935652   0.29975038 
    3430    -294190.4         1000   0.10634481  0.092278438  0.095694872   0.29431812    0.1016337  0.099363585  0.098222691   0.29921998 
    3440   -294166.39         1000   0.10665684  0.092585645  0.095962316    0.2952048   0.10195216  0.099341927  0.097483475   0.29877757 
    3450   -294137.77         1000   0.10699934  0.092920962  0.096225297    0.2961456    0.1023074  0.099416279    0.0967375   0.29846118 
    3460   -294106.15         1000   0.10737322  0.093283549   0.09641659   0.29707336   0.10269676  0.099595642  0.095994858   0.29828726 
    3470   -294081.12         1000    0.1077764  0.093676036  0.096650322   0.29810276   0.10311016  0.099868273  0.095264867    0.2982433 
    3480   -294062.26         1000   0.10820555  0.094102909  0.096815737    0.2991242   0.10352468   0.10020903  0.094552946   0.29828666 
    3490   -294053.13         1000   0.10866028  0.094563892  0.097011713   0.30023588   0.10391616   0.10058429  0.093860378   0.29836083 
    3500   -294061.34         1000   0.10914092  0.095052585  0.097180885   0.30137439   0.10426989    0.1009596   0.09318435   0.29841384 
    3510   -294085.79         1000   0.10964513  0.095561179  0.097252901   0.30245921   0.10458062   0.10130912  0.092523827   0.29841357 
    3520   -294117.77         1000   0.11016529  0.096088961  0.097348134   0.30360239   0.10484826   0.10162215  0.091880984    0.2983514 
    3530   -294133.24         1000   0.11069169  0.096639867  0.097312321   0.30464388   0.10506303   0.10189716  0.091264745   0.29822493 
    3540   -294146.08         1000   0.11121566  0.097209136  0.097308692   0.30573349   0.10522086   0.10211825  0.090686448   0.29802555 
    3550    -294154.8         1000   0.11173181  0.097789542   0.09725664   0.30677799   0.10533053   0.10225843  0.090153322   0.29774228 
    3560   -294163.58         1000   0.11224241  0.098375724  0.097086701   0.30770483   0.10539607   0.10229521   0.08967231   0.29736359 
    3570   -294170.12    1000.8338   0.11275423  0.098962075   0.09695985   0.30867615   0.10542444    0.1022175  0.089238293   0.29688024 
    3580   -294173.56         1000    0.1132735  0.099543111  0.096759449   0.30957606   0.10543264   0.10201952  0.088841172   0.29629334 
    3590   -294179.29     1000.759   0.11379948   0.10011321  0.096574376   0.31048706   0.10543058    0.1017017   0.08847955   0.29561183 
    3600   -294182.59         1000   0.11432818   0.10066136  0.096365513   0.31135506   0.10543048   0.10127502  0.088148045   0.29485354 
    3610   -294178.46    999.49461   0.11485748   0.10116833  0.096133899   0.31215971   0.10545025   0.10075077  0.087839491   0.29404051 
    3620   -294169.73         1000   0.11538033   0.10161694  0.095893343   0.31289061   0.10550343   0.10014946   0.08755642   0.29320932 
    3630   -294163.02    999.10177   0.11588171   0.10199898  0.095642554   0.31352325    0.1055883  0.099482337  0.087312478   0.29238312 
    3640   -294154.98         1000   0.11634942   0.10231206  0.095412607   0.31407408   0.10568608  0.098750202  0.087126874   0.29156316 
    3650   -294158.76    1000.4963    0.1167762   0.10255405  0.095174398   0.31450465   0.10579337  0.097955634  0.087015416   0.29076442 
    3660   -294176.01         1000   0.11715632    0.1027219  0.094974042   0.31485227   0.10591473  0.097105656  0.086983186   0.29000357 
    3670   -294180.57    1000.6006   0.11748448   0.10282085  0.094766802   0.31507214   0.10605534  0.096207218  0.087019848   0.28928241 
    3680   -294176.52     1000.035   0.11775546    0.1028634  0.094570271   0.31518913   0.10623327  0.095277053  0.087105136   0.28861546 
    3690    -294169.2    999.08164   0.11796595   0.10285605  0.094397421   0.31521943   0.10647043  0.094345384  0.087218242   0.28803405 
    3700   -294153.24         1000   0.11811442   0.10280404  0.094221341    0.3151398   0.10677206  0.093439518   0.08734429   0.28755587 
    3710   -294133.94         1000   0.11820015   0.10271237  0.094059191   0.31497171   0.10712923  0.092580099  0.087472797   0.28718213 
    3720   -294128.85    999.34118   0.11822572   0.10258474  0.093915113   0.31472556   0.10752288  0.091788425  0.087599026   0.28691033 
    3730   -294135.52    1000.2125   0.11819415   0.10242375   0.09379312   0.31441101   0.10793403  0.091097459  0.087729198   0.28676069 
    3740   -294155.17         1000   0.11810751   0.10223235  0.093675277   0.31401514   0.10835162   0.09054175  0.087877466   0.28677084 
    3750   -294177.34         1000   0.11797391   0.10201438  0.093595623   0.31358392   0.10876967   0.09013415  0.088045416   0.28694924 
    3760   -294198.43         1000   0.11780339   0.10177239  0.093540464   0.31311624   0.10918628   0.08987369  0.088232935    0.2872929 
    3770      -294222         1000   0.11760373   0.10150858  0.093484966   0.31259727   0.10960506  0.089755394  0.088438872   0.28779933 
    3780   -294242.04         1000   0.11738578   0.10122405    0.0934728   0.31208263   0.11002767   0.08976139   0.08865214    0.2884412 
    3790    -294270.8         1000   0.11716769   0.10091886  0.093458287   0.31154485   0.11044882  0.089857732  0.088852861   0.28915941 
    3800   -294304.89         1000   0.11696406   0.10059791  0.093487553   0.31104953   0.11086181  0.090011526  0.089033172   0.28990651 
    3810   -294342.65         1000   0.11677373   0.10026315  0.093531347   0.31056823   0.11126114  0.090197767  0.089199325   0.29065823 
    3820   -294376.34         1000   0.11659541  0.099920089  0.093558823   0.31007432   0.11164677  0.090394031  0.089351165   0.29139197 
    3830   -294379.35     1000.393   0.11643009  0.099572841  0.093607198   0.30961013   0.11202126  0.090596713  0.089482629   0.29210061 
    3840   -294378.84    1000.3097   0.11627386   0.09921934  0.093641329   0.30913453   0.11238417  0.090821939  0.089594023   0.29280013 
    3850   -294388.19         1000   0.11611773  0.098857154  0.093640776   0.30861566   0.11273686  0.091088666  0.089707796   0.29353332 
    3860   -294395.92    1000.9896   0.11595839  0.098490249  0.093635811   0.30808445    0.1130743  0.091407471  0.089847234   0.29432901 
    3870   -294403.79         1000    0.1157953  0.098122316  0.093596106   0.30751372   0.11339055  0.091781182  0.090031236   0.29520297 
    3880   -294397.79    999.22359   0.11562994  0.097760514   0.09353553   0.30692598   0.11367912  0.092206447  0.090273636    0.2961592 
    3890   -294380.08         1000   0.11546666  0.097410623  0.093446587   0.30632387   0.11393803  0.092676488  0.090588061   0.29720258 
    3900   -294368.36         1000   0.11531577  0.097076416  0.093330963   0.30572315   0.11417792  0.093166035  0.090986764   0.29833072 
    3910      -294356         1000   0.11518583   0.09676417  0.093191239   0.30514124   0.11440483  0.093638097  0.091470892   0.29951382 
    3920   -294356.97    1000.1503    0.1150873  0.096482064  0.093028604   0.30459797   0.11461505  0.094063511  0.092028247    0.3007068 
    3930   -294372.43         1000   0.11502446  0.096231348  0.092855092    0.3041109   0.11481085  0.094436992  0.092648621   0.30189647 
    3940   -294399.02         1000   0.11500064  0.096011454  0.092656639   0.30366874   0.11499241  0.094767812  0.093317769   0.30307799 
    3950   -294427.18         1000   0.11501846  0.095827606  0.092446557   0.30329262   0.11515991  0.095069354  0.094013459   0.30424272 
    3960   -294457.09         1000   0.11507179  0.095685273  0.092248532   0.30300559   0.11531779  0.095350605  0.094708663   0.30537705 
    3970   -294473.78         1000   0.11514451  0.095582329  0.092033546   0.30276039   0.11547554  0.095612991   0.09539245   0.30648098 
    3980   -294484.09         1000   0.11522791  0.095517152  0.091824931   0.30256999   0.11564012  0.095847159  0.096069984   0.30755726 
    3990   -294491.72     1000.964   0.11531653    0.0954924   0.09164973   0.30245866   0.11581013  0.096049661  0.096736989   0.30859678 
    4000   -294499.52         1000   0.11540391  0.095510703  0.091460928   0.30237554   0.11598957  0.096219707  0.097386455   0.30959573 
    4010   -294510.06         1000    0.1154866  0.095564537  0.091319825   0.30237096   0.11619062  0.096346907  0.098014832   0.31055235 
    4020   -294523.64         1000   0.11556458  0.095653683  0.091176764   0.30239502   0.11640753  0.096422206    0.0986137   0.31144343 
    4030   -294529.78    1000.8059   0.11564235  0.095787256  0.091052907   0.30248251   0.11661621   0.09645037  0.099155619    0.3122222 
    4040   -294531.23    1000.9703   0.11572465  0.095967441  0.090967223   0.30265932   0.11680325  0.096445306  0.099622488   0.31287105 
    4050   -294531.52         1000   0.11582432  0.096188203  0.090870129   0.30288265   0.11696693  0.096422109   0.10001535    0.3134044 
    4060   -294529.02     999.6922   0.11595459  0.096441506  0.090781646   0.30317774   0.11710255  0.096398105   0.10034225   0.31384291 
    4070   -294526.16    999.33047   0.11611938  0.096720422  0.090716886   0.30355668   0.11720402  0.096386811   0.10061181   0.31420264 
    4080   -294516.09         1000    0.1163078  0.097017062  0.090638264   0.30396313   0.11727548  0.096406445   0.10083469   0.31451662 
    4090   -294502.65         1000   0.11650074  0.097328905  0.090555256    0.3043849   0.11732477   0.09648448   0.10102838   0.31483763 
    4100   -294486.04         1000   0.11668729  0.097649395   0.09045775   0.30479443   0.11736668  0.096633305   0.10121111   0.31521109 
    4110   -294454.86         1000   0.11686155  0.097973231  0.090352907   0.30518769   0.11741362  0.096852208   0.10139766   0.31566349 
    4120   -294408.99         1000   0.11701647  0.098300132  0.090227505   0.30554411   0.11747729  0.097134272   0.10159693   0.31620849 
    4130   -294371.45         1000   0.11714089  0.098634782  0.090103447   0.30587912   0.11757413  0.097474045   0.10180487   0.31685305 
    4140   -294342.07         1000   0.11723191  0.098981832  0.089960332   0.30617407   0.11771888  0.097866808   0.10200876   0.31759445 
    4150   -294307.72         1000   0.11729859  0.099346821  0.089760701   0.30640611   0.11791839  0.098303194   0.10219719   0.31841877 
    4160   -294275.95         1000   0.11734731  0.099730867  0.089560246   0.30663842   0.11818647  0.098782656   0.10236949   0.31933861 
    4170   -294240.46         1000    0.1173835   0.10013334  0.089294794   0.30681163   0.11853091  0.099298746   0.10251725    0.3203469 
    4180   -294201.92         1000   0.11741933   0.10055256  0.089035464   0.30700735   0.11895014  0.099833688   0.10262199   0.32140582 
    4190   -294161.02         1000   0.11746925   0.10098051  0.088749847    0.3071996   0.11944665   0.10036483   0.10267361   0.32248509 
    4200   -294125.58         1000   0.11753963   0.10140122  0.088472532   0.30741338   0.12003523   0.10087201   0.10267416   0.32358141 
    4210   -294106.79         1000   0.11763187      0.10181  0.088202281   0.30764415   0.12071237   0.10133195   0.10262985   0.32467417 
    4220   -294105.22      999.787   0.11774554   0.10220646  0.087958038   0.30791004   0.12146064   0.10171392   0.10255279   0.32572735 
    4230   -294124.08         1000   0.11787742   0.10259101  0.087698496   0.30816693   0.12225886   0.10200624   0.10245063   0.32671573 
    4240   -294149.84         1000   0.11802006    0.1029604  0.087444045   0.30842451   0.12309043   0.10221741   0.10231668   0.32762452 
    4250   -294170.79         1000   0.11816444   0.10331112  0.087231362   0.30870692   0.12394799   0.10235997   0.10214636   0.32845431 
    4260   -294192.47         1000    0.1183046   0.10364487  0.086997186   0.30894666   0.12482825     0.102438   0.10193758   0.32920383 
    4270   -294214.72         1000   0.11844526   0.10397501  0.086831153   0.30925142   0.12571327   0.10244794   0.10168392   0.32984513 
    4280   -294239.96         1000    0.1185929   0.10431055  0.086620858   0.30952431   0.12658006    0.1023853   0.10138332   0.33034867 
    4290    -294270.2         1000   0.11875262    0.1046432   0.08653052   0.30992634   0.12741605   0.10223611   0.10104678   0.33069895 
    4300   -294298.46         1000   0.11892932   0.10496987  0.086376159   0.31027535     0.128207   0.10200693   0.10069018   0.33090411 
    4310   -294320.44         1000   0.11912766    0.1052918  0.086257414   0.31067686   0.12893317   0.10171527   0.10033641   0.33098485 
    4320    -294343.7         1000   0.11934952     0.105602  0.086329955   0.31128148   0.12957924   0.10137748   0.10001336   0.33097008 
    4330   -294358.87         1000   0.11959788   0.10589223   0.08628041   0.31177052   0.13013648   0.10100945  0.099742403   0.33088833 
    4340    -294368.6         1000   0.11987203   0.10615721  0.086257472   0.31228671   0.13059645   0.10064185  0.099533698     0.330772 
    4350   -294375.73    1000.9359   0.12016782   0.10639791  0.086489181   0.31305491   0.13095967   0.10031316  0.099387893   0.33066073 
    4360   -294373.73    1000.6685   0.12048302   0.10661852  0.086513036   0.31361458    0.1312358   0.10005458  0.099301942   0.33059232 
    4370    -294371.3    1000.3641   0.12081818   0.10682261  0.086830491   0.31447128   0.13142802  0.099884478  0.099272602    0.3305851 
    4380   -294374.11    1000.7378   0.12117205    0.1070177   0.08691682   0.31510657   0.13153317  0.099803349  0.099289999   0.33062652 
    4390   -294372.25    1000.4768   0.12154904   0.10720854  0.087312035   0.31606961   0.13154085  0.099792495  0.099342645   0.33067599 
    4400   -294364.64    999.48973    0.1219577   0.10739664  0.087465927   0.31682026   0.13144192   0.09982573  0.099420599   0.33068825 
    4410   -294352.71         1000   0.12240518   0.10757708  0.087659218   0.31764147   0.13123429   0.09988144  0.099518782   0.33063452 
    4420   -294326.53         1000   0.12289445   0.10774769  0.088155679   0.31879782   0.13091067   0.09993039  0.099642833    0.3304839 
    4430    -294305.1         1000   0.12342223   0.10791459  0.088420147   0.31975697   0.13046924  0.099953992  0.099801083   0.33022432 
    4440   -294289.34         1000   0.12398092   0.10807635  0.088933477   0.32099074    0.1299168  0.099950869   0.10000347   0.32987114 
    4450   -294275.46         1000   0.12455748   0.10822848  0.089237582   0.32202354   0.12926755  0.099918751   0.10025143   0.32943774 
    4460   -294272.46    999.61276   0.12513788   0.10837181  0.089550152   0.32305984   0.12854007  0.099850263   0.10053285   0.32892318 
    4470   -294276.88     1000.186   0.12571372   0.10851097  0.090010869   0.32423556   0.12775136  0.099735447   0.10084093   0.32832774 
    4480    -294282.2    1000.8854   0.12627862    0.1086523  0.090314195   0.32524511    0.1269217  0.099559329   0.10118057    0.3276616 
    4490   -294286.07         1000   0.12682492   0.10880438  0.090612688   0.32624199   0.12608007  0.099309159   0.10156505   0.32695428 
    4500   -294287.57    1000.1995   0.12735347   0.10897913   0.09096817   0.32730077   0.12524282  0.098992766   0.10199825   0.32623383 
    4510   -294291.07    1000.6276   0.12787399   0.10918629  0.091263553   0.32832383   0.12440899  0.098632021   0.10246625   0.32550726 
    4520   -294294.53         1000   0.12839528   0.10942144   0.09154571   0.32936242   0.12359186   0.09822696   0.10294902   0.32476784 
    4530   -294297.06     1000.322   0.12892201   0.10967082  0.091848008   0.33044084    0.1228151  0.097783386   0.10343248   0.32403098 
    4540   -294296.53    1000.2432   0.12945327   0.10992781  0.092118513   0.33149959   0.12209955  0.097324988   0.10390509   0.32332963 
    4550    -294309.5         1000    0.1299841   0.11018791  0.092415187   0.33258721    0.1214714  0.096880447   0.10435615   0.32270799 
    4560   -294322.69         1000   0.13050497   0.11044313  0.092699888   0.33364798   0.12096507  0.096466005   0.10478515   0.32221622 
    4570   -294313.97         1000   0.13100183   0.11068315  0.093007939   0.33469292   0.12060386  0.096080169   0.10519766   0.32188168 
    4580   -294297.42         1000    0.1314638   0.11090296  0.093268633    0.3356354   0.12038942  0.095743262   0.10558897   0.32172165 
    4590   -294290.66    999.06001   0.13188793   0.11111033  0.093715105   0.33671337   0.12031258  0.095485862   0.10595655     0.321755 
    4600   -294294.83     999.5549   0.13226888   0.11132475  0.093964208   0.33755784   0.12035588  0.095329028   0.10629453   0.32197944 
    4610   -294294.48    999.49476    0.1326002    0.1115564  0.094205097    0.3383617   0.12050575  0.095288593   0.10659786    0.3223922 
    4620   -294285.86         1000   0.13288016    0.1118049  0.094792941     0.339478   0.12075406   0.09537951   0.10686939   0.32300296 
    4630   -294272.61         1000   0.13311297    0.1120681  0.095046518   0.34022759   0.12108696  0.095609966   0.10710301   0.32379993 
    4640    -294269.8    999.60795   0.13330225   0.11234108   0.09531107   0.34095439   0.12148862  0.095982474   0.10729786   0.32476895 
    4650   -294278.67    1000.7551   0.13344702   0.11261639  0.096007318   0.34207073   0.12194611  0.096492593   0.10746633   0.32590504 
    4660   -294285.14         1000   0.13355259   0.11288764   0.09629161   0.34273184   0.12244528    0.0971292   0.10760803   0.32718251 
    4670   -294283.69    999.80113   0.13362919   0.11315173  0.096958383    0.3437393   0.12297509   0.09788271   0.10770783   0.32856563 
    4680   -294276.05         1000   0.13368206   0.11341323     0.097239   0.34433429    0.1235385  0.098743792   0.10775779   0.33004008 
    4690   -294275.54    999.96226   0.13371102   0.11367094  0.097503996   0.34488596   0.12414142  0.099687417   0.10776058   0.33158942 
    4700   -294286.32         1000   0.13371636   0.11391517  0.098073518   0.34570505   0.12477754   0.10067932   0.10772368   0.33318054 
    4710   -294302.11         1000   0.13370093   0.11414192  0.098320337   0.34616319   0.12543883   0.10168672   0.10765505   0.33478059 
    4720   -294321.21         1000   0.13366663   0.11434453  0.098756591   0.34676775   0.12611682    0.1026803   0.10755966   0.33635678 
    4730   -294345.03         1000   0.13361366   0.11452107  0.099037954   0.34717268   0.12678787   0.10363544   0.10743607   0.33785938 
    4740   -294372.39         1000   0.13354154   0.11467357  0.099348821   0.34756393   0.12742014   0.10453737    0.1072852   0.33924271 
    4750   -294398.01         1000   0.13344506   0.11480047  0.099602176   0.34784771   0.12799324    0.1053823   0.10711706   0.34049261 
    4760   -294420.89         1000   0.13331248   0.11490068  0.099976011   0.34818917   0.12849395   0.10617981   0.10694107   0.34161483 
    4770   -294436.18         1000   0.13313835   0.11497873   0.10037974   0.34849682   0.12891231   0.10694565   0.10676367   0.34262163 
    4780   -294450.37         1000   0.13292463   0.11504081   0.10043285    0.3483983   0.12924071   0.10769476   0.10658952   0.34352499 
    4790   -294462.91         1000   0.13267544   0.11509328   0.10088483   0.34865356   0.12948444    0.1084272   0.10643117   0.34434282 
    4800   -294474.72         1000   0.13239253   0.11514329   0.10135257   0.34888838   0.12966591   0.10913492   0.10630198    0.3451028 
    4810   -294488.44         1000   0.13207743   0.11519918   0.10120348   0.34848009   0.12980683   0.10980818   0.10621318   0.34582819 
    4820   -294499.36         1000   0.13173737   0.11526915   0.10168489    0.3486914   0.12992693   0.11043075   0.10618365   0.34654134 
    4830   -294497.21    999.77653   0.13138659   0.11535361    0.1014358     0.348176   0.13004872   0.11097897   0.10623076   0.34725845 
    4840   -294479.49         1000   0.13103906   0.11544842   0.10194024   0.34842773   0.13018647   0.11143623   0.10636106   0.34798376 
    4850   -294451.06         1000   0.13069845   0.11554693   0.10246419   0.34870957   0.13034529   0.11178893   0.10657682   0.34871104 
    4860   -294415.62         1000    0.1303633   0.11564613   0.10234706   0.34835649   0.13053086   0.11203472   0.10687031   0.34943589 
    4870   -294373.54         1000   0.13003461   0.11574748   0.10291105   0.34869315   0.13074308   0.11219522   0.10721415   0.35015245 
    4880   -294332.63         1000   0.12971146   0.11585496   0.10291998    0.3484864   0.13098186   0.11230346   0.10757071   0.35085603 
    4890   -294290.93         1000   0.12939446    0.1159641   0.10348354   0.34884211   0.13125152   0.11238685   0.10790636   0.35154474 
    4900   -294258.81         1000    0.1290893   0.11607185   0.10403527   0.34919642   0.13155294   0.11245704   0.10818893   0.35219891 
    4910   -294244.11         1000   0.12880358   0.11618363   0.10407922   0.34906642   0.13186632   0.11252161   0.10838104   0.35276896 
    4920   -294231.18         1000    0.1285425    0.1163042   0.10458549   0.34943219   0.13216291    0.1126017   0.10845343   0.35321804 
    4930   -294222.76         1000   0.12830686   0.11643077   0.10467046   0.34940808   0.13243187   0.11272155   0.10840989   0.35356331 
    4940   -294228.98     1000.785   0.12809795   0.11656537   0.10512021   0.34978353   0.13267495   0.11287904   0.10827071   0.35382469 
    4950   -294236.28         1000   0.12791893   0.11671325   0.10553417   0.35016635   0.13289152   0.11306388   0.10805602   0.35401142 
    4960   -294240.95    1000.5841   0.12777422   0.11687092    0.1057277   0.35037283   0.13307403   0.11326355   0.10779827   0.35413586 
    4970   -294256.89         1000   0.12766897   0.11703131   0.10603787   0.35073816   0.13320974   0.11346916    0.1075306    0.3542095 
    4980   -294266.31         1000   0.12760892   0.11719227   0.10631772    0.3511189    0.1332915   0.11367543   0.10727678   0.35424371 
    4990   -294279.21         1000   0.12760116   0.11735472   0.10652547   0.35148135    0.1333245   0.11387834   0.10705183   0.35425467 
    5000    -294296.5         1000   0.12765099   0.11751568   0.10668898   0.35185564   0.13332027   0.11407726   0.10686826   0.35426579 
    5010   -294307.78         1000   0.12775558   0.11767145    0.1068896   0.35231663   0.13329018   0.11427567    0.1067363   0.35430216 
    5020   -294319.99         1000   0.12790442   0.11782296   0.10695946   0.35268684   0.13324533   0.11448939   0.10664632   0.35438104 
    5030   -294332.96         1000   0.12808879   0.11797603   0.10700297   0.35306779   0.13319891   0.11474512   0.10657456   0.35451859 
    5040   -294340.65         1000   0.12830409   0.11813804   0.10696195   0.35340408   0.13315912   0.11506965   0.10650693   0.35473571 
    5050   -294347.12    1000.8307    0.1285497   0.11831233   0.10686563   0.35372766   0.13312514   0.11547949    0.1064397   0.35504433 
    5060    -294342.8     1000.291   0.12883214   0.11849769   0.10681661   0.35414643   0.13307646   0.11597499   0.10637826   0.35542972 
    5070   -294333.83    999.13679   0.12915589   0.11869341    0.1066246   0.35447391   0.13299477    0.1165538   0.10632789   0.35587646 
    5080      -294319         1000   0.12952094   0.11890051   0.10639138   0.35481283    0.1328583   0.11721689   0.10630152    0.3563767 
    5090   -294297.87         1000   0.12992541   0.11911557   0.10615232    0.3551933   0.13265271   0.11794465   0.10631758   0.35691494 
    5100   -294276.06         1000    0.1303661     0.119334   0.10585356   0.35555366   0.13237595   0.11869872   0.10638957   0.35746424 
    5110   -294248.83         1000   0.13084029   0.11955286   0.10550482   0.35589797   0.13202478   0.11943617   0.10652955   0.35799049 
    5120   -294228.63         1000   0.13134678    0.1197715    0.1051953   0.35631359    0.1315994   0.12011619   0.10674319   0.35845878 
    5130   -294213.64         1000   0.13188316   0.11998941    0.1047954   0.35666797   0.13111334   0.12071173   0.10702525   0.35885033 
    5140   -294201.21         1000   0.13244681   0.12020405   0.10452025   0.35717111   0.13059072   0.12119785   0.10736086   0.35914943 
    5150   -294191.26         1000   0.13303523   0.12041372   0.10427053   0.35771948   0.13005315   0.12155481   0.10772818   0.35933615 
    5160   -294189.52    999.78707   0.13364463   0.12061898   0.10388818   0.35815179   0.12951974   0.12177362   0.10810503   0.35939839 
    5170   -294184.42    999.13068   0.13427322   0.12082003   0.10367811   0.35877137   0.12900967   0.12184407   0.10847379   0.35932752 
    5180    -294167.2         1000   0.13491926   0.12101542   0.10330864   0.35924331   0.12852701   0.12175705   0.10881588   0.35909993 
    5190   -294140.83         1000   0.13557894   0.12120755   0.10314615   0.35993264   0.12806892   0.12151392   0.10911056    0.3586934 
    5200   -294113.84         1000   0.13624689   0.12139602   0.10301254   0.36065545   0.12765186   0.12112369   0.10934966    0.3581252 
    5210   -294102.79         1000   0.13691924   0.12157778     0.102745   0.36124202   0.12729471   0.12059918   0.10953368   0.35742757 
    5220   -294107.67    1000.6538   0.13759222   0.12175185   0.10267769   0.36202176   0.12700944   0.11995782   0.10966768   0.35663494 
    5230   -294130.04         1000   0.13826169    0.1219179   0.10265205   0.36283164   0.12680581   0.11922392   0.10976324   0.35579297 
    5240   -294156.97         1000    0.1389245   0.12207493   0.10257591   0.36357533   0.12669565   0.11841653   0.10984162    0.3549538 
    5250   -294173.36         1000   0.13957776   0.12221851   0.10265666   0.36445293   0.12669219    0.1175421   0.10992846   0.35416275 
    5260   -294167.45    999.23766   0.14021245   0.12235219   0.10284475   0.36540938   0.12680566   0.11660717    0.1100395   0.35345233 
    5270   -294158.11         1000   0.14081474   0.12248148   0.10302581   0.36632203   0.12704594   0.11562896   0.11018172   0.35285662 
    5280   -294168.39         1000   0.14137719   0.12260902   0.10323316   0.36721936   0.12741053   0.11463562     0.110344   0.35239015 
    5290   -294206.04         1000   0.14189738   0.12273914   0.10352012   0.36815664   0.12788333   0.11365845   0.11050943   0.35205121 
    5300    -294255.8         1000   0.14237307   0.12288151   0.10372143   0.36897601   0.12844122    0.1127273   0.11066521   0.35183373 
    5310   -294294.48         1000   0.14280522   0.12304614   0.10402535   0.36987671   0.12905177   0.11187137   0.11079895   0.35172209 
    5320   -294326.12         1000   0.14319813   0.12323413   0.10419662   0.37062888   0.12969111   0.11109484    0.1109126   0.35169855 
    5330    -294359.1         1000   0.14355647    0.1234371   0.10434613    0.3713397   0.13033483   0.11037987   0.11101317   0.35172787 
    5340   -294390.95         1000   0.14387925   0.12364526   0.10461167   0.37213618   0.13095984   0.10971458   0.11110546   0.35177988 
    5350   -294414.95         1000   0.14416396   0.12385511   0.10472049   0.37273956     0.131555   0.10910389   0.11118325   0.35184214 
    5360   -294434.95         1000   0.14441004   0.12406521    0.1049989   0.37347415     0.132118   0.10855449   0.11123487   0.35190736 
    5370   -294456.91         1000   0.14461755   0.12426547   0.10508867   0.37397169    0.1326434    0.1080806   0.11125216   0.35197616 
    5380   -294481.09         1000   0.14478762   0.12444658   0.10517972   0.37441392   0.13312562   0.10770099   0.11122371   0.35205032 
    5390   -294499.87         1000   0.14492189   0.12460505   0.10547892   0.37500586   0.13356944   0.10743213   0.11114386   0.35214542 
    5400   -294515.81         1000   0.14501911   0.12473673   0.10557771   0.37533356   0.13399236   0.10728172    0.1110249   0.35229898 
    5410   -294534.41         1000   0.14507371   0.12484091   0.10590599   0.37582061   0.13440192   0.10725298   0.11087531   0.35253021 
    5420   -294545.97         1000    0.1450799   0.12492201   0.10603622   0.37603813   0.13479315   0.10734984   0.11068922   0.35283221 
    5430   -294544.68     999.8536   0.14503598   0.12498259    0.1061878   0.37620637   0.13515666   0.10757512   0.11044947   0.35318125 
    5440   -294524.23         1000   0.14494791   0.12502427   0.10658944   0.37656163   0.13548066   0.10793303    0.1101328   0.35354649 
    5450   -294498.98         1000   0.14482057   0.12505958   0.10678671   0.37666685   0.13575582   0.10843798   0.10972255   0.35391635 
    5460   -294481.55         1000   0.14465754   0.12509982   0.10708631   0.37684368   0.13597592   0.10909243   0.10922143   0.35428979 
    5470   -294451.46         1000   0.14446548   0.12514424   0.10732962   0.37693933   0.13614256    0.1098724   0.10865288   0.35466783 
    5480   -294409.34         1000   0.14425132   0.12518778   0.10759866   0.37703776   0.13625752   0.11074821   0.10803403   0.35503975 
    5490   -294368.14         1000   0.14402234     0.125222   0.10765525   0.37689958   0.13633054   0.11168771   0.10737973   0.35539799 
    5500   -294332.76         1000   0.14378396   0.12524228    0.1079913   0.37701754   0.13637517   0.11266767   0.10670788   0.35575071 
    5510   -294310.97         1000   0.14353847   0.12524528    0.1081877   0.37697144   0.13640526    0.1136663   0.10602255   0.35609411 
    5520   -294300.11         1000   0.14328809   0.12522669   0.10861729   0.37713207    0.1364324   0.11466318   0.10532739   0.35642297 
    5530   -294280.08         1000   0.14303337    0.1251875   0.10892178   0.37714265   0.13644971   0.11563682   0.10463306   0.35671959 
    5540    -294244.6         1000   0.14277077   0.12513608   0.10946075    0.3773676   0.13642114   0.11656332   0.10395229   0.35693675 
    5550   -294201.98         1000    0.1424959   0.12508052   0.11005543   0.37763184   0.13630855   0.11742708   0.10328801   0.35702364 
    5560   -294163.65         1000   0.14220478   0.12502308   0.11047853   0.37770639   0.13610206   0.11821669   0.10263966   0.35695842 
    5570   -294133.26         1000   0.14189391   0.12496317   0.11115745   0.37801453    0.1358028   0.11892801   0.10200338   0.35673419 
    5580   -294109.02         1000   0.14155922    0.1248984   0.11186425   0.37832187   0.13540977   0.11956337    0.1013827   0.35635584 
    5590   -294085.38         1000    0.1411984   0.12482536   0.11238548   0.37840925   0.13492785   0.12013369    0.1007904   0.35585194 
    5600   -294065.77         1000   0.14081966   0.12473879   0.11310095    0.3786594   0.13437714   0.12064601   0.10023684   0.35525999 
[...]
  248670   -294787.23         1000   0.37211895   0.42093752   0.40250685    1.1955633   0.40115993   0.51260181   0.42930118    1.3430629 
  248680   -294805.16         1000   0.37268008   0.42036186   0.40275882    1.1958008   0.40141824   0.51353197   0.43024752    1.3451977 
  248690   -294829.68         1000   0.37331417   0.41984543   0.40293482    1.1960944   0.40160805   0.51440081   0.43112603    1.3471349 
  248700   -294860.78         1000   0.37402124   0.41939258   0.40332225    1.1967361   0.40174111   0.51517236   0.43194681    1.3488603 
  248710   -294890.56         1000   0.37479342   0.41900589   0.40352937    1.1973287     0.401852   0.51579551   0.43272307    1.3503706 
  248720   -294903.03         1000   0.37561996   0.41868775   0.40402609    1.1983338   0.40194801   0.51624123   0.43347424    1.3516635 
  248730   -294899.72    999.55277   0.37649079    0.4184382    0.4045827    1.1995117   0.40203227   0.51649379   0.43421008    1.3527361 
  248740   -294889.26         1000   0.37738822   0.41824826   0.40411576    1.1997522   0.40213434   0.51653478   0.43491391     1.353583 
  248750   -294877.32         1000   0.37828746   0.41810521    0.4048724    1.2012651   0.40227713   0.51635534   0.43554612    1.3541786 
  248760   -294858.07         1000   0.37917484    0.4179985   0.40511076    1.2022841   0.40246446   0.51596468   0.43606847    1.3544976 
  248770   -294828.02         1000   0.38004693   0.41792284   0.40611872    1.2040885   0.40268658   0.51538533   0.43646047    1.3545324 
  248780   -294792.94         1000   0.38090537   0.41787881   0.40723874    1.2060229   0.40294157   0.51465708   0.43670875    1.3543074 
  248790    -294758.1         1000   0.38175733   0.41786954   0.40810758    1.2077344   0.40323882   0.51381472   0.43681269    1.3538662 
  248800   -294730.72         1000   0.38260452   0.41789533   0.40935213     1.209852   0.40355753   0.51288056   0.43676251    1.3532006 
  248810   -294708.59         1000   0.38344425   0.41795501   0.41041979    1.2118191   0.40388904    0.5118633   0.43654605    1.3522984 
  248820   -294688.73         1000   0.38427224   0.41805348   0.41172988    1.2140556   0.40424833   0.51076191   0.43617646    1.3511867 
  248830   -294664.13         1000   0.38507796   0.41819546    0.4130541    1.2163275   0.40465527   0.50957206   0.43571186    1.3499392 
  248840   -294643.96         1000   0.38584454   0.41837895   0.41433731    1.2185608   0.40512619   0.50829359   0.43522473    1.3486445 
  248850   -294639.28    999.40273   0.38654886   0.41859479   0.41564568    1.2207893   0.40566192   0.50693506   0.43475553    1.3473525 
  248860   -294639.98    999.52321   0.38716392   0.41883218   0.41706475    1.2230608   0.40623983   0.50550308   0.43431844    1.3460614 
  248870   -294628.84         1000   0.38766858    0.4190809   0.41833951     1.225089   0.40681664   0.50400461   0.43393481    1.3447561 
  248880   -294608.27         1000   0.38804933    0.4193379   0.41989533    1.2272826   0.40735026   0.50245825   0.43362997    1.3434385 
  248890   -294576.97         1000   0.38829515   0.41960955   0.42115927     1.229064   0.40782058   0.50088248   0.43342402    1.3421271 
  248900   -294542.96         1000   0.38839615   0.41990798   0.42279826    1.2311024   0.40822698   0.49929182   0.43331109    1.3408299 
  248910    -294518.8         1000   0.38835175   0.42024214   0.42399932    1.2325932   0.40856579   0.49771487   0.43327067    1.3395513 
  248920   -294499.29         1000   0.38816938   0.42062002   0.42512821    1.2339176   0.40883737    0.4961771   0.43330071    1.3383152 
  248930   -294477.35         1000    0.3878586   0.42104668   0.42667297    1.2355783   0.40905368   0.49469784   0.43340024    1.3371518 
  248940   -294465.52         1000   0.38743006   0.42152643   0.42761438    1.2365709   0.40922879   0.49329047   0.43355353    1.3360728 
  248950   -294464.89    999.94973   0.38689703   0.42206279   0.42915789    1.2381177   0.40936798   0.49196185   0.43373821     1.335068 
  248960   -294469.84    1000.6207   0.38627267   0.42265424   0.42987943    1.2388064   0.40946286   0.49072208   0.43394285    1.3341278 
  248970   -294486.62         1000   0.38556623   0.42329437   0.43104459    1.2399052   0.40949622   0.48958731   0.43416114    1.3332447 
  248980    -294511.4         1000   0.38478408   0.42397468   0.43159437    1.2403531    0.4094557   0.48858582   0.43438113    1.3324227 
  248990   -294522.82         1000   0.38392905   0.42469116   0.43208128    1.2407015    0.4093276   0.48773838   0.43458131    1.3316473 
  249000   -294524.73    1000.2426   0.38300529   0.42544307   0.43158415    1.2400325   0.40908963   0.48704081   0.43475339    1.3308838 
  249010   -294528.61    1000.7312   0.38202115     0.426224   0.43194049    1.2401856   0.40872517   0.48647543   0.43490977    1.3301104 
  249020   -294542.73         1000   0.38098112    0.4270289   0.43222016    1.2402302   0.40823853   0.48601387   0.43509284    1.3293452 
  249030   -294566.54         1000   0.37988239   0.42785505   0.43185232    1.2395898   0.40764351   0.48563047   0.43533802     1.328612 
  249040   -294593.91         1000   0.37871672   0.42870314   0.43190752    1.2393274   0.40694773   0.48531287   0.43565908    1.3279197 
  249050   -294626.66         1000   0.37748504   0.42956355    0.4314158    1.2384644   0.40614867   0.48506551   0.43604672    1.3272609 
  249060   -294662.93         1000   0.37619331   0.43042495   0.43122802    1.2378463   0.40524403   0.48488649   0.43648578    1.3266163 
  249070   -294699.03         1000   0.37484562   0.43128208    0.4309388    1.2370665   0.40423709   0.48476042   0.43696436    1.3259619 
  249080   -294710.54         1000   0.37344675    0.4321275   0.43025749    1.2358317   0.40312886   0.48466288   0.43746293    1.3252547 
  249090   -294708.99    999.81856   0.37200294   0.43295404   0.42983969    1.2347967    0.4019215   0.48455147   0.43794554    1.3244185 
  249100   -294708.53    999.77781   0.37052128   0.43376584   0.42931609    1.2336032   0.40062773   0.48436329   0.43838201     1.323373 
  249110   -294712.57    1000.3265   0.36900822   0.43456641   0.42879847    1.2323731   0.39925984   0.48404754   0.43875502    1.3220624 
  249120   -294715.61    1000.7615   0.36747048   0.43534451   0.42823708    1.2310521   0.39783399   0.48359079   0.43904331    1.3204681 
  249130   -294723.19         1000   0.36591497   0.43608742   0.42802301    1.2300254   0.39636585   0.48300843   0.43921919    1.3185935 
  249140   -294743.91         1000   0.36435021   0.43679048   0.42735077    1.2284915   0.39486772   0.48232658   0.43925925    1.3164535 
  249150   -294774.43         1000   0.36278532   0.43745624    0.4265998    1.2268414   0.39335658   0.48156217   0.43915107    1.3140698 
  249160   -294807.18         1000   0.36122978   0.43808813   0.42658872    1.2259066    0.3918568   0.48071425   0.43889813    1.3114692 
  249170   -294835.29         1000    0.3596912   0.43868941   0.42565864    1.2240393   0.39038095   0.47977377   0.43848987    1.3086446 
  249180   -294851.91         1000   0.35817877   0.43926248   0.42571149    1.2231527   0.38893292   0.47873662    0.4379069    1.3055764 
  249190   -294858.75    1000.9302   0.35669146   0.43980959   0.42464534    1.2211464   0.38752359   0.47762022   0.43714361    1.3022874 
  249200   -294856.42    1000.6665   0.35522069    0.4403389    0.4235712    1.2191308   0.38617087   0.47646047   0.43620349    1.2988348 
  249210   -294852.19    1000.1226     0.353775   0.44084268    0.4238085    1.2184262   0.38488827   0.47531028   0.43510942     1.295308 
  249220   -294841.25         1000    0.3523691   0.44131246   0.42276229    1.2164438   0.38367313   0.47420108   0.43387326    1.2917475 
  249230   -294836.61    999.41249   0.35100465   0.44176138   0.42182793     1.214594   0.38250921   0.47312709   0.43248315    1.2881195 
  249240   -294850.11         1000   0.34968379   0.44220845   0.42084564    1.2127379    0.3813925   0.47207011    0.4309414     1.284404 
  249250   -294879.45         1000   0.34841646   0.44266187   0.41990115    1.2109795   0.38033592   0.47100806   0.42925554    1.2805995 
  249260   -294911.49         1000   0.34721546   0.44313004   0.41911567    1.2094612   0.37935208   0.46992924   0.42746337    1.2767447 
  249270   -294932.11         1000   0.34609593   0.44360986   0.41816508    1.2078709     0.378439    0.4688383   0.42560539    1.2728827 
  249280   -294938.06    1000.7003   0.34506156    0.4440889   0.41738784    1.2065383   0.37759735   0.46775949   0.42372515     1.269082 
  249290   -294935.42    1000.2945   0.34411147   0.44456176   0.41635093    1.2050242   0.37684638   0.46671802   0.42188322    1.2654476 
  249300   -294926.76    999.09866   0.34325188   0.44502314   0.41528838    1.2035634   0.37621066    0.4657429   0.42012776    1.2620813 
  249310   -294912.55         1000   0.34247984   0.44546539    0.4136003    1.2015455   0.37569353   0.46485043   0.41849407     1.259038 
  249320   -294891.79         1000   0.34178984   0.44587322   0.41255777    1.2002208    0.3752808   0.46404016   0.41700061    1.2563216 
  249330    -294858.3         1000   0.34118366   0.44622079   0.41152949    1.1989339    0.3749539   0.46331898   0.41566413     1.253937 
  249340   -294818.82         1000   0.34066594   0.44649176   0.41054037    1.1976981    0.3746889   0.46271453    0.4144781    1.2518815 
  249350   -294783.57         1000   0.34023961   0.44668422   0.40956473    1.1964885     0.374465    0.4622627   0.41341437    1.2501421 
  249360   -294748.83         1000   0.33990954   0.44680587   0.40937139    1.1960868   0.37426078   0.46198199   0.41245812    1.2487009 
  249370   -294717.59         1000   0.33968061   0.44687409   0.40846072    1.1950154   0.37405802   0.46186236   0.41159716    1.2475175 
  249380   -294689.96         1000   0.33954437   0.44689457   0.40756053    1.1939995   0.37385036    0.4618723   0.41081664    1.2465393 
  249390   -294663.42         1000   0.33949485   0.44686535   0.40717868    1.1935389   0.37362596   0.46198364   0.41012205    1.2457317 
  249400    -294643.3         1000   0.33953335   0.44678348   0.40628734    1.1926042   0.37337541   0.46217986   0.40952697    1.2450822 
  249410   -294632.53         1000   0.33965572    0.4466547   0.40562137    1.1919318    0.3731003   0.46245927   0.40904826    1.2446078 
  249420    -294635.5    1000.4373   0.33984838   0.44648751   0.40479117    1.1911271   0.37281358   0.46284182   0.40868275    1.2443381 
  249430   -294667.23         1000   0.34009442   0.44628618   0.40401983    1.1904004   0.37253888   0.46334899   0.40842007    1.2443079 
  249440   -294715.18         1000   0.34038078   0.44605722   0.40393295     1.190371   0.37228357   0.46398995   0.40824896    1.2445225 
  249450   -294745.91         1000   0.34070901   0.44581207   0.40326188     1.189783   0.37202311   0.46475391    0.4081376    1.2449146 
  249460   -294769.25         1000   0.34108582   0.44555778    0.4026274     1.189271   0.37174974   0.46561798   0.40801982    1.2453875 
  249470   -294787.48         1000    0.3415045   0.44531148   0.40218106     1.188997   0.37147049   0.46656723   0.40787048    1.2459082 
  249480   -294789.11    1000.2287   0.34195931   0.44508571    0.4015856    1.1886306   0.37119098   0.46756302    0.4076905    1.2464445 
  249490   -294786.87    999.94812   0.34244873   0.44489029   0.40097158    1.1883106   0.37090962    0.4685689   0.40748523    1.2469638 
  249500   -294777.59         1000   0.34296654   0.44473232   0.40052657    1.1882254   0.37062389   0.46956555   0.40726407    1.2474535 
  249510   -294767.56         1000   0.34349968   0.44461521   0.39988326    1.1879981   0.37033246    0.4705368   0.40703146    1.2479007 
  249520   -294770.57    1000.4517   0.34402095   0.44453729   0.39950454    1.1880628   0.37003884   0.47146382   0.40678132     1.248284 
  249530   -294785.15         1000   0.34450426   0.44448685   0.39893984    1.1879309   0.36975192   0.47233758   0.40652029    1.2486098 
  249540   -294809.69         1000   0.34492847   0.44444358   0.39847065    1.1878427   0.36948684   0.47314683   0.40628079    1.2489145 
  249550   -294829.13         1000   0.34528086    0.4444068   0.39840834     1.188096   0.36925761   0.47386785   0.40611732    1.2492428 
  249560   -294844.58         1000   0.34555415     0.444388   0.39815502    1.1880972   0.36907253   0.47450215   0.40607736     1.249652 
  249570   -294858.46         1000   0.34574641   0.44439281    0.3980006    1.1881398   0.36893293   0.47506421   0.40616697    1.2501641 
  249580   -294870.96         1000    0.3458632   0.44443493   0.39780041    1.1880985   0.36881571   0.47555691   0.40639533     1.250768 
  249590   -294886.67         1000    0.3459086   0.44450144   0.39771102    1.1881211   0.36869524   0.47599622    0.4067603    1.2514518 
  249600   -294903.48         1000   0.34587804   0.44458096   0.39711938    1.1875784   0.36855742   0.47638628   0.40725335    1.2521971 
  249610   -294911.05    1000.9713   0.34576635   0.44466945   0.39701231    1.1874481   0.36839956    0.4767172   0.40786991    1.2529867 
  249620   -294921.68         1000   0.34557119    0.4447657   0.39691321    1.1872501   0.36822299   0.47699475   0.40861104    1.2538288 
  249630   -294935.58         1000   0.34529311   0.44486714   0.39625861    1.1864189   0.36803331    0.4772385   0.40948244    1.2547543 
  249640   -294949.87         1000   0.34493556   0.44496643   0.39620584    1.1861078   0.36783639   0.47746611   0.41048523    1.2557877 
  249650   -294954.73    1000.6378   0.34450619   0.44504726   0.39553374    1.1850872   0.36764251   0.47767427   0.41158281    1.2568996 
  249660   -294945.63    999.44835   0.34400813   0.44510111   0.39562137    1.1847306   0.36745341   0.47784622   0.41278038      1.25808 
  249670   -294924.16         1000   0.34344177    0.4451278   0.39579584    1.1843654   0.36725897   0.47799207   0.41408094     1.259332 
  249680    -294907.1         1000   0.34280675    0.4451275   0.39532698    1.1832612   0.36705745   0.47809361   0.41547266    1.2606237 
  249690    -294887.8         1000   0.34211053   0.44509221   0.39562727      1.18283   0.36685484   0.47814793   0.41695864    1.2619614 
  249700   -294878.64         1000   0.34136473   0.44500799   0.39594294    1.1823157   0.36666153    0.4781694    0.4185333    1.2633642 
  249710   -294876.24    999.64107    0.3405836   0.44486674   0.39535521    1.1808055   0.36648996   0.47817555   0.42015408    1.2648196 
  249720   -294860.07         1000   0.33978587   0.44466645   0.39563787    1.1800902    0.3663526   0.47819253   0.42178954    1.2663347 
  249730   -294827.24         1000   0.33899972   0.44442036   0.39504254    1.1784626   0.36627576   0.47823367   0.42342357     1.267933 
  249740   -294794.11         1000   0.33825098   0.44413919   0.39533783     1.177728   0.36629373   0.47831637   0.42498758    1.2695977 
  249750   -294760.34         1000   0.33754952   0.44383177   0.39564776     1.177029   0.36640867   0.47847763   0.42642672     1.271313 
  249760   -294731.33         1000   0.33689863   0.44350633   0.39508805     1.175493   0.36660954   0.47872435   0.42767999    1.2730139 
  249770   -294714.45         1000   0.33630034   0.44317132   0.39538906    1.1748607    0.3668899   0.47902958   0.42869563    1.2746151 
  249780   -294701.07         1000    0.3357556   0.44283163   0.39487966    1.1734669   0.36724219   0.47934409   0.42945838    1.2760447 
  249790   -294683.47         1000   0.33526598   0.44249179   0.39520771    1.1729655   0.36765474   0.47964064   0.42996316    1.2772585 
  249800   -294664.59         1000   0.33483389   0.44215691   0.39556412    1.1725549   0.36811369   0.47990817   0.43021461    1.2782365 
  249810   -294634.35         1000   0.33445922   0.44182905   0.39528395    1.1715722    0.3686094    0.4801288   0.43022871    1.2789669 
  249820   -294610.76         1000   0.33413653   0.44150391   0.39565137    1.1712918   0.36912385   0.48029317   0.43003376    1.2794508 
  249830   -294601.83         1000   0.33386723   0.44117656   0.39560702    1.1706508   0.36962143   0.48043467   0.42965192     1.279708 
  249840   -294593.39         1000   0.33365261   0.44084402   0.39587131    1.1703679   0.37006494   0.48061111   0.42910368    1.2797797 
  249850   -294584.33         1000    0.3334862   0.44051782   0.39606947    1.1700735   0.37045108   0.48085466   0.42841255    1.2797183 
  249860    -294581.5    999.60519   0.33335945   0.44022251    0.3961321    1.1697141   0.37079201   0.48117244   0.42759648    1.2795609 
  249870   -294589.79     1000.667    0.3332626   0.43997531   0.39624339    1.1694813   0.37109744   0.48155901   0.42667229    1.2793287 
  249880   -294595.97         1000   0.33318794    0.4397832   0.39645692    1.1694281   0.37137464    0.4820225    0.4256557    1.2790528 
  249890   -294593.37    999.66709   0.33313087   0.43964579   0.39653412    1.1693108   0.37161306   0.48260401    0.4245528    1.2787699 
  249900   -294594.02    999.73144   0.33308935    0.4395595   0.39689595    1.1695448   0.37180159   0.48332259   0.42337078     1.278495 
  249910   -294609.09         1000   0.33306247   0.43951932   0.39702353    1.1696053   0.37194637   0.48416514   0.42211931    1.2782308 
  249920   -294627.67         1000    0.3330486   0.43951005   0.39744485    1.1700035   0.37206379   0.48511595   0.42080183    1.2779816 
  249930   -294646.93         1000   0.33305452   0.43951977   0.39758915    1.1701634   0.37216652   0.48616308   0.41942697    1.2777566 
  249940   -294657.75         1000    0.3330897   0.43954552   0.39808165    1.1707169   0.37226114   0.48730517    0.4180099    1.2775762 
  249950   -294660.65    1000.3956   0.33315995   0.43958392   0.39818495    1.1709288   0.37236217    0.4885026   0.41656847    1.2774332 
  249960   -294671.95         1000   0.33326691    0.4396325   0.39824156     1.171141   0.37250178   0.48969577   0.41512817    1.2773257 
  249970    -294698.4         1000   0.33340929   0.43970126   0.39851956    1.1716301   0.37269684   0.49087454   0.41370993    1.2772813 
  249980   -294733.15         1000    0.3335874   0.43980933   0.39851745    1.1719142   0.37295186   0.49203549   0.41233524    1.2773226 
  249990   -294758.69         1000   0.33379128   0.43996721   0.39850672    1.1722652   0.37328381    0.4931621   0.41102603    1.2774719 
  250000   -294776.32         1000   0.33400444   0.44017291   0.39808319    1.1722605   0.37371452   0.49420883    0.4098021    1.2777254 
Loop time of 10753.3 on 32 procs for 250000 steps with 2577 atoms

Performance: 0.402 ns/day, 59.741 hours/ns, 23.249 timesteps/s
100.0% CPU use with 32 MPI tasks x no OpenMP threads

MPI task timing breakdown:
Section |  min time  |  avg time  |  max time  |%varavg| %total
---------------------------------------------------------------
Pair    | 5742.9     | 7394.7     | 9477.8     |1462.0 | 68.77
Neigh   | 59.778     | 86.083     | 111.95     | 244.8 |  0.80
Comm    | 55.446     | 1888.3     | 3781.5     |2618.4 | 17.56
Output  | 40.058     | 40.099     | 40.131     |   0.3 |  0.37
Modify  | 1060.3     | 1117.2     | 1202.4     | 153.0 | 10.39
Other   |            | 227        |            |       |  2.11

Nlocal:    80.5312 ave 96 max 65 min
Histogram: 2 1 3 5 3 9 4 2 1 2
Nghost:    1865.72 ave 2356 max 1440 min
Histogram: 16 0 0 0 0 0 0 0 8 8
Neighs:    24214.2 ave 32969 max 17574 min
Histogram: 3 7 4 2 1 5 1 4 3 2

Total # of neighbors = 774855
Ave neighs/atom = 300.681
Neighbor list builds = 9985
Dangerous builds = 0

Please see the log.cite file for references relevant to this simulation

Total wall time: 2:59:13
