ITEM: TIMESTEP
0
ITEM: NUMBER OF ATOMS
2577
ITEM: BOX BOUNDS pp pp ss
0.0000000000000000e+00 1.8560400000000001e+01
0.0000000000000000e+00 4.2399999999999999e+01
9.1224069288256371e-01 3.9637940850046256e+01
ITEM: ATOMS id type x y z 
7 1 2.88826 0.866468 3.02921 
52 1 1.35878 3.92691 1.96637 
106 2 1.17159 3.93231 3.99312 
124 2 2.8881 2.58936 1.81634 
178 2 2.8881 5.23782 1.83006 
205 2 1.17137 0.882253 4.25382 
223 1 4.4175 3.92691 1.96624 
241 2 4.60502 3.93231 3.99304 
259 2 4.60437 0.882253 4.25355 
277 1 5.94543 2.40809 4.12435 
295 1 2.88858 3.94695 5.21869 
358 1 5.9462 0.830552 0.916241 
412 2 5.9456 2.6273 2.11163 
466 2 5.94559 5.27674 2.10783 
1513 1 4.4167 0.871924 6.28057 
1479 1 1.35939 0.871918 6.28053 
1445 1 5.94547 3.88617 7.34262 
1310 2 2.8882 2.20972 6.41542 
1275 2 5.94535 2.18144 6.12958 
331 1 9.0029 0.866469 3.02921 
376 1 7.47342 3.92691 1.96637 
430 2 7.28623 3.93231 3.99312 
448 2 9.00274 2.58936 1.81634 
502 2 9.00274 5.23782 1.83006 
529 2 7.28601 0.882253 4.25383 
547 1 10.5321 3.92691 1.96624 
565 2 10.7197 3.93231 3.99304 
583 2 10.719 0.882253 4.25355 
593 2 12.06 2.18144 6.12958 
601 1 12.0601 2.40809 4.12435 
618 2 9.00284 2.20972 6.41542 
619 1 9.00323 3.94695 5.21869 
682 1 12.0608 0.830552 0.916241 
736 2 12.0602 2.6273 2.11163 
748 1 12.0601 3.88617 7.34262 
782 1 7.47403 0.871918 6.28053 
790 2 12.0602 5.27673 2.10782 
814 1 10.5313 0.871925 6.28057 
28 2 18.1746 2.18144 6.12958 
44 2 15.1175 2.20972 6.41542 
138 1 18.1748 3.88617 7.34262 
167 1 13.5887 0.871919 6.28053 
191 1 16.646 0.871925 6.28057 
655 1 15.1175 0.866469 3.02921 
700 1 13.5881 3.92691 1.96637 
754 2 13.4009 3.93231 3.99312 
772 2 15.1174 2.58936 1.81634 
826 2 15.1174 5.23782 1.83006 
853 2 13.4007 0.882252 4.25383 
871 1 16.6468 3.92691 1.96624 
889 2 16.8343 3.93231 3.99304 
907 2 16.8337 0.882253 4.25355 
925 1 18.1747 2.40809 4.12435 
943 1 15.1179 3.94695 5.21869 
1006 1 18.1755 0.830551 0.916241 
1060 2 18.1749 2.6273 2.11163 
1114 2 18.1749 5.27673 2.10782 
313 1 5.94543 5.45236 4.12202 
2014 2 5.9456 8.71565 2.11163 
1960 1 5.9462 6.9189 0.916243 
1906 1 2.88858 10.0353 5.21869 
1888 1 5.94543 8.49645 4.12435 
1870 2 4.60437 6.97061 4.25355 
1852 2 4.60502 10.0207 3.99304 
1834 1 4.4175 10.0153 1.96624 
1816 2 1.17137 6.97061 4.25382 
757 1 4.4167 6.96028 6.28057 
1735 2 2.8881 8.67771 1.81634 
1717 2 1.17159 10.0207 3.99312 
818 1 1.35939 6.96027 6.28053 
1663 1 1.35878 10.0153 1.96637 
1627 1 2.88825 6.95482 3.0292 
892 1 5.94546 9.97453 7.34262 
930 2 2.8882 5.6513 6.43215 
1195 2 2.8882 8.29807 6.41542 
1277 2 5.94535 8.26979 6.12958 
1236 2 5.94534 5.623 6.14557 
2576 2 9.00285 5.6513 6.43215 
2523 1 12.0601 9.97453 7.34262 
2440 1 7.47403 6.96027 6.28053 
2372 1 10.5313 6.96028 6.28057 
2329 2 12.0602 8.71565 2.11163 
2275 1 12.0608 6.91891 0.916243 
2253 2 9.00284 8.29807 6.41542 
2221 1 9.00323 10.0353 5.21869 
2203 1 12.0601 8.49644 4.12435 
2185 2 10.719 6.97061 4.25355 
2167 2 10.7197 10.0207 3.99304 
2149 1 10.5321 10.0153 1.96624 
2131 2 7.28601 6.97061 4.25383 
2075 2 12.06 8.26979 6.12958 
2050 2 9.00274 8.67771 1.81634 
2032 2 7.28623 10.0207 3.99312 
1978 1 7.47342 10.0153 1.96637 
557 2 12.06 5.623 6.14557 
1942 1 9.0029 6.95482 3.0292 
637 1 12.0601 5.45236 4.12202 
2569 1 18.1755 6.9189 0.916242 
13 2 18.1746 5.623 6.14557 
2536 1 15.1179 10.0353 5.21869 
2530 2 18.1749 8.71565 2.11163 
2518 1 18.1747 8.49644 4.12435 
2500 2 16.8337 6.97061 4.25355 
2482 2 16.8343 10.0207 3.99304 
2464 1 16.6468 10.0153 1.96624 
2446 2 13.4007 6.97061 4.25383 
175 2 18.1746 8.26979 6.12958 
2365 2 15.1174 8.67771 1.81634 
2347 2 13.4009 10.0207 3.99312 
2293 1 13.5881 10.0153 1.96637 
294 2 15.1175 8.29807 6.41542 
2257 1 15.1175 6.95482 3.0292 
545 2 15.1175 5.6513 6.43215 
648 1 18.1748 9.97453 7.34262 
729 1 13.5887 6.96027 6.28053 
833 1 16.646 6.96028 6.28057 
961 1 18.1747 5.45236 4.12202 
2378 1 4.4167 13.0486 6.28057 
2298 1 1.35939 13.0486 6.28053 
2180 2 2.8882 11.7396 6.43215 
2068 2 5.94559 11.3651 2.10782 
2024 1 2.88826 13.0432 3.0292 
2020 2 2.8882 14.3864 6.41542 
1924 1 5.94543 11.5407 4.12202 
1914 2 2.8881 14.7661 1.81634 
1902 2 5.94535 14.3581 6.12958 
1849 2 1.17137 13.059 4.25382 
1802 2 4.60437 13.059 4.25355 
1789 2 2.8881 11.3262 1.83006 
1783 1 5.94543 14.5848 4.12435 
1729 1 5.9462 13.0073 0.916243 
1678 2 5.9456 14.804 2.11163 
1355 2 5.94534 11.7114 6.14557 
2383 2 12.0602 11.3651 2.10783 
2239 1 12.0601 11.5407 4.12202 
2104 2 9.00274 11.3262 1.83006 
1879 2 12.06 11.7114 6.14557 
654 2 12.06 14.3581 6.12958 
743 2 9.00284 14.3864 6.41542 
1745 1 9.0029 13.0432 3.0292 
1651 2 9.00274 14.7661 1.81634 
886 2 9.00285 11.7396 6.43215 
1578 2 7.28601 13.059 4.25383 
1533 2 10.719 13.059 4.25355 
1517 1 12.0601 14.5848 4.12435 
1018 1 7.47403 13.0486 6.28053 
1049 1 10.5313 13.0486 6.28057 
1430 1 12.0608 13.0073 0.916243 
1369 2 12.0602 14.804 2.11163 
2554 1 18.1747 11.5407 4.12202 
2483 2 18.1749 11.3651 2.10783 
109 2 18.1746 11.7114 6.14557 
2419 2 15.1174 11.3262 1.83006 
875 1 16.646 13.0486 6.28057 
913 1 13.5887 13.0486 6.28053 
1003 2 15.1175 11.7396 6.43215 
1455 1 15.1175 13.0432 3.0292 
1082 2 18.1749 14.804 2.11163 
1128 1 18.1755 13.0073 0.916242 
1330 2 15.1174 14.7661 1.81634 
1169 2 15.1175 14.3864 6.41542 
1190 1 18.1747 14.5848 4.12435 
1208 2 16.8337 13.059 4.25355 
1210 2 18.1746 14.3581 6.12958 
1263 2 13.4007 13.059 4.25383 
64 2 5.9456 20.8924 2.11163 
116 1 5.9462 19.0956 0.916243 
203 1 5.94543 20.6732 4.12435 
231 2 4.60437 19.1473 4.25355 
2269 1 5.94547 16.0629 7.34262 
293 2 1.17137 19.1473 4.25382 
400 2 2.8881 20.8544 1.81634 
1993 1 1.35878 16.1036 1.96637 
520 1 2.88825 19.1315 3.0292 
1963 1 4.4167 19.137 6.28057 
1940 1 1.35939 19.137 6.28053 
1925 2 1.17159 16.109 3.99312 
1878 2 2.8881 17.4145 1.83006 
1863 2 5.94534 17.7997 6.14557 
1829 1 4.4175 16.1036 1.96624 
1813 2 4.60502 16.109 3.99304 
1790 2 2.8882 17.828 6.43215 
1770 1 2.88858 16.1237 5.21869 
1756 1 5.94543 17.6291 4.12202 
1690 2 2.8882 20.4748 6.41542 
1631 2 5.94559 17.4534 2.10783 
1566 2 5.94535 20.4465 6.12958 
15 2 9.00274 20.8544 1.81634 
18 2 9.00284 20.4748 6.41542 
22 2 12.06 20.4465 6.12958 
103 2 7.28601 19.1473 4.25383 
128 2 9.00285 17.828 6.43215 
141 1 9.0029 19.1315 3.0292 
168 2 10.719 19.1473 4.25355 
193 1 12.0601 20.6732 4.12435 
285 1 12.0608 19.0956 0.916243 
319 1 7.47403 19.137 6.28053 
373 2 12.0602 20.8924 2.11163 
473 1 10.5313 19.137 6.28057 
513 2 12.06 17.7997 6.14557 
1713 1 7.47342 16.1036 1.96637 
1662 2 7.28623 16.109 3.99312 
1601 2 9.00274 17.4145 1.83006 
944 1 12.0601 16.0629 7.34262 
1564 1 10.5321 16.1036 1.96624 
1552 2 10.7197 16.109 3.99304 
1496 1 9.00323 16.1237 5.21869 
1476 1 12.0601 17.6291 4.12202 
1318 2 12.0602 17.4534 2.10783 
246 1 16.646 19.137 6.28057 
266 1 15.1175 19.1315 3.0292 
280 1 13.5887 19.137 6.28053 
329 2 15.1175 17.828 6.43215 
404 2 15.1175 20.4748 6.41542 
411 2 18.1746 20.4465 6.12958 
417 2 15.1174 20.8544 1.81634 
511 2 13.4007 19.1473 4.25383 
579 2 16.8337 19.1473 4.25355 
612 1 18.1747 20.6732 4.12435 
703 1 18.1755 19.0956 0.916242 
780 2 18.1749 20.8924 2.11163 
957 1 18.1748 16.0629 7.34262 
1028 2 18.1749 17.4534 2.10783 
1404 1 13.5881 16.1036 1.96637 
1342 2 13.4009 16.109 3.99312 
1159 1 18.1747 17.6291 4.12202 
1178 1 15.1179 16.1237 5.21869 
1285 2 15.1174 17.4145 1.83006 
1228 2 16.8343 16.109 3.99304 
1240 2 18.1746 17.7997 6.14557 
1245 1 16.6468 16.1036 1.96624 
31 2 5.94559 23.5418 2.10783 
150 1 5.94543 23.7174 4.12202 
173 1 2.88858 22.212 5.21869 
253 2 4.60502 22.1974 3.99304 
272 1 4.4175 22.192 1.96624 
342 2 2.8881 23.5029 1.83006 
420 2 1.17159 22.1974 3.99312 
479 1 1.35878 22.192 1.96637 
1894 1 5.94547 22.1512 7.34262 
1893 1 5.9462 25.184 0.916243 
1782 2 4.60437 25.2357 4.25355 
1714 2 1.17137 25.2357 4.25382 
1538 2 2.8882 23.9164 6.43215 
1484 1 2.88825 25.2199 3.0292 
1451 1 1.35939 25.2253 6.28053 
1446 1 4.4167 25.2253 6.28057 
1424 2 5.94534 23.8881 6.14557 
43 2 7.28623 22.1974 3.99312 
45 2 12.06 23.8881 6.14557 
75 2 9.00274 23.5029 1.83006 
93 1 7.47342 22.192 1.96637 
137 1 10.5321 22.192 1.96624 
148 2 10.7197 22.1974 3.99304 
183 1 12.0601 22.1512 7.34262 
212 1 9.00323 22.212 5.21869 
244 1 12.0601 23.7174 4.12202 
2285 1 12.0608 25.184 0.916243 
2177 2 10.719 25.2357 4.25355 
2094 2 7.28601 25.2357 4.25383 
438 2 12.0602 23.5418 2.10783 
1953 2 9.00285 23.9164 6.43215 
1907 1 7.47403 25.2253 6.28053 
1897 1 10.5313 25.2253 6.28057 
1873 1 9.0029 25.2199 3.0292 
2563 2 16.8337 25.2357 4.25355 
2498 2 13.4007 25.2357 4.25383 
2459 1 18.1755 25.184 0.916242 
2390 2 15.1175 23.9164 6.43215 
2351 1 13.5887 25.2253 6.28053 
2321 1 16.646 25.2253 6.28057 
2264 1 15.1175 25.2199 3.0292 
301 1 18.1748 22.1512 7.34262 
318 1 13.5881 22.192 1.96637 
398 2 13.4009 22.1974 3.99312 
441 2 18.1746 23.8881 6.14557 
482 2 15.1174 23.5029 1.83006 
535 1 16.6468 22.192 1.96624 
555 2 16.8343 22.1974 3.99304 
632 1 15.1179 22.212 5.21869 
663 1 18.1747 23.7174 4.12202 
837 2 18.1749 23.5418 2.10782 
9 1 2.88826 31.3082 3.02921 
207 2 1.17137 31.324 4.25382 
261 2 4.60437 31.324 4.25355 
360 1 5.9462 31.2723 0.916241 
2029 2 5.94559 29.6301 2.10783 
1952 2 5.9456 26.9807 2.11163 
1842 1 5.94543 29.8058 4.12202 
1825 1 2.88858 28.3004 5.21869 
1806 1 5.94543 26.7615 4.12435 
1762 2 4.60502 28.2857 3.99304 
1733 1 4.4175 28.2803 1.96624 
1695 2 2.8881 29.5912 1.83006 
1638 2 5.94534 29.9764 6.14557 
1628 2 5.94535 26.5349 6.12958 
1618 2 2.8881 26.9428 1.81634 
1612 2 2.8882 26.5631 6.41542 
1600 2 1.17159 28.2857 3.99312 
1531 1 1.35878 28.2803 1.96637 
1528 1 5.94546 28.2396 7.34262 
1507 1 4.4167 31.3137 6.28057 
1474 1 1.35939 31.3137 6.28053 
1406 2 2.88821 30.0047 6.43215 
2422 2 12.0602 29.6301 2.10783 
2357 2 12.0602 26.9807 2.11163 
2240 1 12.0601 29.8058 4.12202 
333 1 9.0029 31.3082 3.02921 
2224 1 9.00323 28.3004 5.21869 
2202 1 12.0601 26.7615 4.12435 
2148 2 10.7197 28.2857 3.99304 
2122 1 10.5321 28.2803 1.96624 
2073 2 9.00274 29.5912 1.83006 
2042 2 12.06 29.9764 6.14557 
2028 2 12.06 26.5349 6.12958 
2018 2 9.00284 26.5631 6.41542 
2003 2 9.00274 26.9428 1.81634 
1979 2 7.28623 28.2857 3.99312 
531 2 7.28601 31.324 4.25383 
585 2 10.719 31.324 4.25355 
1919 1 12.0601 28.2396 7.34262 
1912 1 7.47342 28.2803 1.96637 
684 1 12.0608 31.2723 0.916241 
720 2 9.00285 30.0047 6.43215 
776 1 7.47403 31.3137 6.28053 
811 1 10.5313 31.3137 6.28057 
2567 1 18.1747 26.7615 4.12435 
2552 2 16.8343 28.2857 3.99304 
2540 1 15.1179 28.3004 5.21869 
2533 2 18.1746 29.9764 6.14557 
2527 1 16.6468 28.2803 1.96624 
2510 1 18.1747 29.8058 4.12202 
2480 2 18.1746 26.5349 6.12958 
2478 2 15.1174 29.5912 1.83006 
110 2 15.1175 30.0047 6.43215 
2462 2 15.1175 26.5631 6.41542 
166 1 13.5887 31.3137 6.28053 
2403 2 15.1174 26.9428 1.81634 
188 1 16.646 31.3137 6.28057 
2391 2 13.4009 28.2857 3.99312 
2371 2 18.1749 26.9807 2.11163 
2369 1 18.1748 28.2396 7.34262 
2311 1 13.5881 28.2803 1.96637 
2289 2 18.1749 29.6301 2.10783 
657 1 15.1175 31.3082 3.02921 
855 2 13.4007 31.324 4.25383 
909 2 16.8337 31.324 4.25355 
1008 1 18.1755 31.2723 0.916241 
54 1 1.35878 34.3687 1.96637 
108 2 1.17159 34.3741 3.99312 
126 2 2.8881 33.0311 1.81634 
180 2 2.8881 35.6796 1.83006 
225 1 4.4175 34.3687 1.96624 
243 2 4.60502 34.3741 3.99304 
279 1 5.94543 32.8499 4.12435 
297 1 2.88858 34.3887 5.21869 
315 1 5.94543 35.8941 4.12202 
414 2 5.9456 33.0691 2.11163 
468 2 5.94559 35.7185 2.10783 
937 2 2.8882 36.0931 6.43215 
1442 1 5.94547 34.3279 7.34262 
1302 2 2.8882 32.6515 6.41542 
1235 2 5.94534 36.0648 6.14557 
1273 2 5.94535 32.6232 6.12958 
2566 2 9.00285 36.0931 6.43215 
378 1 7.47342 34.3687 1.96637 
432 2 7.28623 34.3741 3.99312 
450 2 9.00274 33.0311 1.81634 
504 2 9.00274 35.6796 1.83006 
549 1 10.5321 34.3687 1.96624 
551 2 12.06 36.0648 6.14557 
567 2 10.7197 34.3741 3.99304 
592 2 12.06 32.6232 6.12958 
603 1 12.0601 32.8499 4.12435 
616 2 9.00284 32.6515 6.41542 
621 1 9.00323 34.3887 5.21869 
639 1 12.0601 35.8941 4.12202 
738 2 12.0602 33.0691 2.11163 
745 1 12.0601 34.3279 7.34262 
792 2 12.0602 35.7185 2.10782 
10 2 18.1746 36.0648 6.14557 
25 2 18.1746 32.6232 6.12958 
39 2 15.1175 32.6515 6.41542 
130 1 18.1748 34.3279 7.34262 
537 2 15.1175 36.0931 6.43215 
702 1 13.5881 34.3687 1.96637 
756 2 13.4009 34.3741 3.99312 
774 2 15.1174 33.0311 1.81634 
828 2 15.1174 35.6796 1.83006 
873 1 16.6468 34.3687 1.96624 
891 2 16.8343 34.3741 3.99304 
927 1 18.1747 32.8499 4.12435 
945 1 15.1179 34.3887 5.21869 
963 1 18.1747 35.8941 4.12202 
1062 2 18.1749 33.0691 2.11163 
1116 2 18.1749 35.7185 2.10782 
2153 2 2.8882 42.1814 6.43215 
2070 2 5.94559 41.8069 2.10782 
2016 2 5.9456 39.1574 2.11163 
1962 1 5.9462 37.3607 0.916243 
1926 1 5.94543 41.9825 4.12202 
1908 1 2.88858 40.4771 5.21869 
1890 1 5.94543 38.9382 4.12435 
1872 2 4.60437 37.4124 4.25355 
1854 2 4.60502 40.4624 3.99304 
1836 1 4.4175 40.457 1.96624 
1818 2 1.17137 37.4124 4.25382 
1791 2 2.8881 41.7679 1.83006 
768 1 4.4167 37.4021 6.28057 
1737 2 2.8881 39.1195 1.81634 
1719 2 1.17159 40.4624 3.99312 
824 1 1.35939 37.402 6.28053 
1665 1 1.35878 40.457 1.96637 
1629 1 2.88825 37.3966 3.0292 
904 1 5.94546 40.4163 7.34262 
1375 2 5.94534 42.1531 6.14557 
1206 2 2.8882 38.7398 6.41542 
1293 2 5.94535 38.7116 6.12958 
2534 1 12.0601 40.4163 7.34262 
2457 1 7.47403 37.402 6.28053 
2388 1 10.5313 37.4021 6.28057 
2385 2 12.0602 41.8069 2.10783 
2331 2 12.0602 39.1574 2.11163 
2277 1 12.0608 37.3607 0.916243 
2241 1 12.0601 41.9825 4.12202 
2231 2 9.00284 38.7398 6.41542 
2223 1 9.00323 40.4771 5.21869 
2205 1 12.0601 38.9382 4.12435 
2187 2 10.719 37.4124 4.25355 
2169 2 10.7197 40.4624 3.99304 
2151 1 10.5321 40.457 1.96624 
2133 2 7.28601 37.4124 4.25383 
2106 2 9.00274 41.7679 1.83006 
2067 2 12.06 38.7116 6.12958 
2052 2 9.00274 39.1195 1.81634 
2034 2 7.28623 40.4624 3.99312 
1980 1 7.47342 40.457 1.96637 
1944 1 9.0029 37.3966 3.0292 
1847 2 12.06 42.1531 6.14557 
876 2 9.00285 42.1814 6.43215 
2565 1 18.1755 37.3607 0.916242 
2556 1 18.1747 41.9825 4.12202 
2538 1 15.1179 40.4771 5.21869 
2528 2 18.1749 39.1574 2.11163 
2520 1 18.1747 38.9382 4.12435 
2502 2 16.8337 37.4124 4.25355 
97 2 18.1746 42.1531 6.14557 
2484 2 16.8343 40.4624 3.99304 
2479 2 18.1749 41.8069 2.10783 
2466 1 16.6468 40.457 1.96624 
2448 2 13.4007 37.4124 4.25383 
159 2 18.1746 38.7116 6.12958 
2421 2 15.1174 41.7679 1.83006 
2367 2 15.1174 39.1195 1.81634 
2349 2 13.4009 40.4624 3.99312 
2295 1 13.5881 40.457 1.96637 
287 2 15.1175 38.7398 6.41542 
2259 1 15.1175 37.3966 3.0292 
622 1 18.1748 40.4163 7.34262 
723 1 13.5887 37.402 6.28053 
817 1 16.646 37.4021 6.28057 
1016 2 15.1175 42.1814 6.43215 
377 2 5.94543 5.22735 10.7299 
434 2 5.94543 2.58052 10.7465 
526 1 5.94581 0.875711 9.53314 
1880 1 2.88805 0.815473 11.6571 
1857 2 1.17155 3.88055 12.622 
1843 2 1.17111 0.828237 12.8827 
1831 2 4.60468 3.88055 12.622 
1740 2 4.60424 0.828238 12.8825 
1725 1 5.94524 2.35439 12.7523 
856 1 4.4166 3.88976 10.5951 
916 2 2.88793 5.19898 10.4437 
949 2 4.22853 3.89903 8.56835 
992 2 1.54701 3.89903 8.56806 
1064 2 2.88793 2.55215 10.4603 
1382 2 1.54746 0.862804 8.30758 
1140 1 2.88801 2.38088 8.43779 
1339 2 4.22896 0.862806 8.30765 
1165 1 1.35929 3.88976 10.5951 
71 1 12.0605 0.875711 9.53314 
222 1 10.5312 3.88976 10.5951 
275 2 9.00258 5.19898 10.4437 
317 2 10.3432 3.89903 8.56835 
348 2 7.66166 3.89903 8.56806 
401 2 9.00258 2.55215 10.4603 
459 1 9.00266 2.38088 8.43779 
494 1 7.47393 3.88976 10.5951 
512 2 12.0601 2.58052 10.7465 
649 2 10.3436 0.862806 8.30765 
687 2 7.6621 0.862803 8.30758 
860 2 12.0601 5.22735 10.7299 
1657 1 9.00269 0.815473 11.6571 
1655 2 7.28619 3.88055 12.622 
1645 2 7.28575 0.828238 12.8827 
1639 2 10.7193 3.88055 12.622 
1577 2 10.7189 0.828238 12.8825 
1561 1 12.0599 2.35439 12.7523 
59 2 16.4582 0.862806 8.30765 
88 2 13.7767 0.862803 8.30758 
2485 1 18.1751 0.875711 9.53314 
186 1 13.5886 3.88976 10.5951 
2362 2 18.1747 2.58052 10.7465 
338 1 15.1173 2.38088 8.43779 
2193 2 18.1747 5.22735 10.7299 
699 2 15.1172 2.55215 10.4603 
989 2 13.7763 3.89903 8.56806 
1518 1 15.1173 0.815473 11.6571 
1505 2 13.4008 3.88055 12.622 
1495 2 13.4004 0.828237 12.8827 
1483 2 16.834 3.88055 12.622 
1463 1 16.6459 3.88976 10.5951 
1403 2 16.8335 0.828238 12.8825 
1393 1 18.1745 2.35439 12.7523 
1118 2 16.4578 3.89903 8.56835 
1234 2 15.1172 5.19898 10.4437 
2296 1 4.4166 9.97811 10.5951 
2047 2 4.22853 9.98738 8.56835 
1932 2 1.54701 9.98738 8.56806 
1797 2 2.88793 8.64051 10.4603 
1757 1 5.94581 6.96406 9.53314 
1693 1 5.94524 5.39857 12.7523 
867 1 5.94524 8.44275 12.7523 
1653 1 2.88802 8.46923 8.43779 
881 1 2.88802 5.42507 8.43799 
910 2 4.60424 6.91659 12.8825 
1583 1 1.35929 9.97812 10.5951 
1567 2 5.94543 8.66887 10.7465 
1019 2 1.54746 6.95116 8.30758 
1021 2 4.60468 9.9689 12.622 
1041 2 1.17111 6.91659 12.8827 
1055 2 1.17155 9.9689 12.622 
1080 1 2.88805 6.90383 11.6571 
1092 2 4.22896 6.95116 8.30765 
1 1 12.0605 6.96406 9.53314 
2505 2 7.6621 6.95116 8.30758 
2398 2 10.3436 6.95116 8.30765 
199 2 12.0601 8.66887 10.7465 
247 1 9.00266 5.42507 8.43799 
595 1 12.0599 8.44275 12.7523 
629 2 10.7189 6.91659 12.8825 
750 2 10.7193 9.9689 12.622 
767 2 7.28575 6.91659 12.8827 
787 2 7.28619 9.9689 12.622 
801 1 9.00269 6.90383 11.6571 
1704 1 7.47393 9.97812 10.5951 
1644 1 9.00266 8.46923 8.43779 
955 1 10.5312 9.97811 10.5951 
1545 1 12.0599 5.39857 12.7523 
1482 2 9.00258 8.64051 10.4603 
1306 2 7.66166 9.98738 8.56806 
1224 2 10.3432 9.98738 8.56835 
81 1 13.5886 9.97812 10.5951 
154 1 15.1173 8.46923 8.43779 
278 1 18.1745 8.44275 12.7523 
309 2 15.1172 8.64051 10.4603 
322 2 16.8335 6.91659 12.8825 
387 2 16.4582 6.95116 8.30765 
426 2 13.7763 9.98738 8.56806 
451 2 16.834 9.9689 12.622 
463 2 13.4004 6.91659 12.8827 
464 2 13.7767 6.95116 8.30758 
469 2 16.4578 9.98738 8.56835 
486 2 13.4008 9.9689 12.622 
500 1 15.1173 6.90383 11.6571 
559 1 16.6459 9.97811 10.5951 
898 1 18.1751 6.96406 9.53314 
996 2 18.1747 8.66887 10.7465 
1381 1 18.1745 5.39857 12.7523 
1323 1 15.1173 5.42507 8.43799 
117 1 2.88805 12.9922 11.6571 
142 2 1.17111 13.0049 12.8827 
162 2 5.94543 14.7572 10.7465 
210 2 4.60424 13.0049 12.8825 
248 1 5.94524 14.5311 12.7523 
2215 1 2.88802 11.5134 8.43799 
2123 2 2.88793 11.2873 10.4437 
2111 2 1.54746 13.0395 8.30758 
2086 2 4.22896 13.0395 8.30765 
452 1 5.94581 13.0524 9.53314 
1715 1 2.88801 14.5576 8.43779 
832 1 5.94524 11.4869 12.7523 
1626 2 2.88793 14.7289 10.4603 
1407 2 5.94543 11.3157 10.7299 
61 1 9.00266 14.5576 8.43779 
284 2 9.00257 14.7289 10.4603 
292 1 9.00269 12.9922 11.6571 
316 2 7.28575 13.0049 12.8827 
334 2 12.0601 11.3157 10.7299 
433 2 10.7189 13.0049 12.8825 
447 1 12.0599 14.5311 12.7523 
544 1 12.0599 11.4869 12.7523 
785 2 10.3436 13.0395 8.30765 
829 2 7.6621 13.0395 8.30758 
1033 1 9.00266 11.5134 8.43799 
1350 2 12.0601 14.7572 10.7465 
1133 2 9.00258 11.2873 10.4437 
1274 1 12.0605 13.0524 9.53314 
252 1 18.1745 11.4869 12.7523 
2045 2 18.1747 14.7572 10.7465 
496 2 15.1172 11.2873 10.4437 
505 1 15.1173 12.9922 11.6571 
509 1 15.1173 11.5134 8.43799 
1997 1 18.1751 13.0524 9.53314 
538 2 13.4004 13.0049 12.8827 
631 2 16.8335 13.0049 12.8825 
658 1 18.1745 14.5311 12.7523 
1070 2 18.1747 11.3157 10.7299 
1394 2 15.1172 14.7289 10.4603 
1119 2 13.7767 13.0395 8.30758 
1138 2 16.4582 13.0395 8.30765 
1327 1 15.1173 14.5576 8.43779 
51 1 5.94581 19.1408 9.53314 
98 2 5.94543 20.8456 10.7465 
133 2 1.17155 16.0573 12.622 
144 2 4.60468 16.0573 12.622 
262 1 5.94524 17.5753 12.7523 
391 2 5.94543 17.4041 10.7299 
1778 1 1.35929 16.0665 10.5951 
1765 2 1.54746 19.1279 8.30758 
1710 2 4.22896 19.1279 8.30765 
967 1 2.88805 19.0805 11.6571 
981 2 1.17111 19.0933 12.8827 
1488 2 1.54701 16.0757 8.56806 
1413 2 4.22853 16.0757 8.56835 
1085 2 4.60424 19.0933 12.8825 
1099 2 2.88793 20.8172 10.4603 
1108 1 5.94524 20.6195 12.7523 
1154 1 4.4166 16.0665 10.5951 
1309 2 2.88793 17.3757 10.4437 
1213 1 2.88802 17.6018 8.43799 
1262 1 2.88802 20.6459 8.43779 
4 2 10.3436 19.1279 8.30765 
32 2 7.6621 19.1279 8.30758 
84 1 9.00266 20.6459 8.43779 
118 2 9.00258 20.8172 10.4603 
289 1 7.47393 16.0665 10.5951 
300 2 7.28619 16.0573 12.622 
340 2 10.7193 16.0573 12.622 
470 1 12.0605 19.1408 9.53314 
475 1 12.0599 17.5753 12.7523 
491 2 7.66166 16.0757 8.56806 
550 2 12.0601 20.8456 10.7465 
574 2 10.3432 16.0757 8.56835 
599 2 9.00258 17.3757 10.4437 
708 1 9.00266 17.6018 8.43799 
800 1 10.5312 16.0665 10.5951 
1460 2 12.0601 17.4041 10.7299 
1168 1 9.00269 19.0805 11.6571 
1182 2 7.28575 19.0933 12.8827 
1280 1 12.0599 20.6195 12.7523 
1264 2 10.7189 19.0933 12.8825 
349 2 13.7767 19.1279 8.30758 
362 2 16.4582 19.1279 8.30765 
2079 2 18.1747 17.4041 10.7299 
521 2 13.4008 16.0573 12.622 
533 1 15.1173 20.6459 8.43779 
542 2 16.834 16.0573 12.622 
586 2 15.1172 20.8172 10.4603 
672 1 18.1745 17.5753 12.7523 
1780 1 16.6459 16.0665 10.5951 
1647 1 15.1173 17.6018 8.43799 
1603 2 15.1172 17.3757 10.4437 
1547 2 16.4578 16.0757 8.56835 
970 1 18.1751 19.1408 9.53314 
1515 2 13.7763 16.0757 8.56806 
1473 1 18.1745 20.6195 12.7523 
1042 2 18.1747 20.8456 10.7465 
1435 2 16.8335 19.0933 12.8825 
1345 2 13.4004 19.0933 12.8827 
1324 1 15.1173 19.0805 11.6571 
1297 1 13.5886 16.0665 10.5951 
125 2 5.94543 23.4924 10.7299 
2058 1 5.94581 25.2291 9.53314 
2057 2 4.60424 25.1817 12.8825 
481 1 4.4166 22.1548 10.5951 
1949 2 1.17111 25.1817 12.8827 
1917 1 2.88805 25.1689 11.6571 
594 1 2.88802 23.6901 8.43799 
643 2 2.88793 23.464 10.4437 
808 2 4.22853 22.1641 8.56835 
899 2 1.54701 22.1641 8.56806 
1579 2 4.22896 25.2162 8.30765 
1556 2 1.54746 25.2162 8.30758 
978 2 1.17155 22.1456 12.622 
1001 2 4.60468 22.1456 12.622 
1130 1 5.94524 23.6636 12.7523 
1281 1 1.35929 22.1548 10.5951 
2541 1 12.0605 25.2291 9.53314 
63 1 7.47393 22.1548 10.5951 
153 2 7.66166 22.1641 8.56806 
171 2 10.3432 22.1641 8.56835 
187 2 9.00258 23.464 10.4437 
220 1 9.00266 23.6901 8.43799 
230 1 10.5312 22.1548 10.5951 
2256 2 10.7189 25.1817 12.8825 
2166 2 7.28575 25.1817 12.8827 
2144 1 9.00269 25.1689 11.6571 
1987 2 10.3436 25.2162 8.30765 
1970 2 7.6621 25.2162 8.30758 
614 2 12.0601 23.4924 10.7299 
1173 2 7.28619 22.1456 12.622 
1307 1 12.0599 23.6636 12.7523 
1191 2 10.7193 22.1456 12.622 
2452 2 16.8335 25.1817 12.8825 
2442 2 16.4582 25.2162 8.30765 
2415 2 13.7767 25.2162 8.30758 
2379 2 13.4004 25.1817 12.8827 
2350 1 15.1173 25.1689 11.6571 
2266 1 18.1751 25.2291 9.53314 
487 1 13.5886 22.1548 10.5951 
623 2 13.7763 22.1641 8.56806 
667 2 16.4578 22.1641 8.56835 
710 2 15.1172 23.464 10.4437 
712 1 15.1173 23.6901 8.43799 
732 1 16.6459 22.1548 10.5951 
1493 1 18.1745 23.6636 12.7523 
1098 2 18.1747 23.4924 10.7299 
1357 2 16.834 22.1456 12.622 
1333 2 13.4008 22.1456 12.622 
2179 2 5.94543 29.5808 10.7299 
2128 2 5.94543 26.9339 10.7465 
2095 1 5.94524 29.752 12.7523 
2074 1 5.94524 26.7078 12.7523 
522 1 5.94581 31.3175 9.53314 
1966 2 4.60468 28.234 12.622 
1931 2 1.17155 28.234 12.622 
1876 1 2.88805 31.2572 11.6571 
1856 1 4.4166 28.2432 10.5951 
1846 1 2.88801 29.7785 8.43799 
1839 2 1.17111 31.27 12.8827 
1821 2 2.88793 29.5524 10.4437 
1793 2 4.22853 28.2524 8.56835 
1787 2 1.54701 28.2524 8.56806 
1738 2 4.60424 31.27 12.8825 
1716 2 2.88793 26.9056 10.4603 
1685 1 2.88801 26.7343 8.43779 
1682 1 1.35929 28.2432 10.5951 
1376 2 1.54746 31.3046 8.30758 
1335 2 4.22896 31.3046 8.30765 
2551 2 12.0601 26.9339 10.7465 
80 1 12.0605 31.3175 9.53314 
2503 2 12.0601 29.5808 10.7299 
2310 1 12.0599 29.752 12.7523 
2297 1 10.5312 28.2432 10.5951 
2279 1 9.00266 29.7785 8.43799 
2273 1 12.0599 26.7078 12.7523 
2235 2 9.00257 29.5524 10.4437 
2219 2 10.3432 28.2524 8.56835 
2199 2 7.66166 28.2524 8.56806 
2181 2 10.7193 28.234 12.622 
2156 2 9.00258 26.9056 10.4603 
2154 2 7.28619 28.234 12.622 
2118 1 9.00266 26.7343 8.43779 
2103 1 7.47393 28.2432 10.5951 
644 2 10.3436 31.3046 8.30765 
681 2 7.6621 31.3046 8.30758 
1656 1 9.00269 31.2572 11.6571 
1641 2 7.28575 31.27 12.8827 
1576 2 10.7189 31.27 12.8825 
2560 1 15.1173 26.7343 8.43779 
2559 1 13.5886 28.2432 10.5951 
57 2 16.4582 31.3046 8.30765 
2517 1 18.1745 29.752 12.7523 
2514 2 15.1172 26.9056 10.4603 
85 2 13.7767 31.3046 8.30758 
2492 1 18.1751 31.3175 9.53314 
2491 1 18.1745 26.7078 12.7523 
2481 2 13.7763 28.2524 8.56806 
2460 2 16.4578 28.2524 8.56835 
2436 2 15.1172 29.5524 10.4437 
2431 1 15.1173 29.7785 8.43799 
2404 1 16.6459 28.2432 10.5951 
2389 2 16.834 28.234 12.622 
2360 2 13.4008 28.234 12.622 
2209 2 18.1747 26.9339 10.7465 
2189 2 18.1747 29.5808 10.7299 
1516 1 15.1173 31.2572 11.6571 
1489 2 13.4004 31.27 12.8827 
1400 2 16.8335 31.27 12.8825 
371 2 5.94543 35.6691 10.7299 
422 2 5.94543 33.0223 10.7465 
1855 2 1.17155 34.3223 12.622 
1827 2 4.60468 34.3223 12.622 
1722 1 5.94524 32.7962 12.7523 
1691 1 5.94524 35.8403 12.7523 
849 1 4.4166 34.3315 10.5951 
880 1 2.88802 35.8668 8.43799 
911 2 2.88793 35.6408 10.4437 
947 2 4.22853 34.3408 8.56835 
988 2 1.54701 34.3408 8.56806 
1056 2 2.88793 32.9939 10.4603 
1135 1 2.88801 32.8227 8.43779 
1160 1 1.35929 34.3315 10.5951 
219 1 10.5312 34.3315 10.5951 
245 1 9.00266 35.8668 8.43799 
273 2 9.00258 35.6408 10.4437 
308 2 10.3432 34.3408 8.56835 
341 2 7.66166 34.3408 8.56806 
396 2 9.00258 32.9939 10.4603 
457 1 9.00266 32.8227 8.43779 
490 1 7.47393 34.3315 10.5951 
519 2 12.0601 33.0223 10.7465 
1650 2 7.28619 34.3223 12.622 
884 2 12.0601 35.6691 10.7299 
1637 2 10.7193 34.3223 12.622 
1559 1 12.0599 32.7962 12.7523 
1539 1 12.0599 35.8403 12.7523 
209 1 13.5886 34.3315 10.5951 
2354 2 18.1747 33.0223 10.7465 
355 1 15.1173 32.8227 8.43779 
2192 2 18.1747 35.6691 10.7299 
721 2 15.1172 32.9939 10.4603 
999 2 13.7763 34.3408 8.56806 
1499 2 13.4008 34.3223 12.622 
1472 2 16.834 34.3223 12.622 
1466 1 16.6459 34.3315 10.5951 
1391 1 18.1745 32.7962 12.7523 
1379 1 18.1745 35.8403 12.7523 
1338 1 15.1173 35.8668 8.43799 
1145 2 16.4578 34.3408 8.56835 
1239 2 15.1172 35.6408 10.4437 
2308 1 4.4166 40.4199 10.5951 
2230 1 2.88802 41.9552 8.43799 
2138 2 2.88793 41.7291 10.4437 
2055 2 4.22853 40.4292 8.56835 
1946 2 1.54701 40.4292 8.56806 
1805 2 2.88793 39.0823 10.4603 
1748 1 5.94581 37.4058 9.53314 
827 1 5.94524 41.9287 12.7523 
863 1 5.94524 38.8845 12.7523 
1659 1 2.88802 38.911 8.43779 
905 2 4.60424 37.3584 12.8825 
1592 1 1.35929 40.4199 10.5951 
1553 2 5.94543 39.1106 10.7465 
1020 2 4.60468 40.4107 12.622 
1038 2 1.54746 37.3929 8.30758 
1040 2 1.17111 37.3584 12.8827 
1045 2 1.17155 40.4107 12.622 
1079 1 2.88805 37.3456 11.6571 
1397 2 5.94543 41.7575 10.7299 
1102 2 4.22896 37.3929 8.30765 
3 1 12.0605 37.4058 9.53314 
2494 2 7.6621 37.3929 8.30758 
2370 2 10.3436 37.3929 8.30765 
213 2 12.0601 39.1106 10.7465 
361 2 12.0601 41.7575 10.7299 
539 1 12.0599 41.9287 12.7523 
584 1 12.0599 38.8845 12.7523 
626 2 10.7189 37.3584 12.8825 
746 2 10.7193 40.4107 12.622 
758 2 7.28575 37.3584 12.8827 
786 2 7.28619 40.4107 12.622 
798 1 9.00269 37.3456 11.6571 
1700 1 7.47393 40.4199 10.5951 
1635 1 9.00266 38.911 8.43779 
940 1 10.5312 40.4199 10.5951 
1022 1 9.00266 41.9552 8.43799 
1478 2 9.00258 39.0823 10.4603 
1121 2 9.00258 41.7291 10.4437 
1301 2 7.66166 40.4292 8.56806 
1219 2 10.3432 40.4292 8.56835 
104 1 13.5886 40.4199 10.5951 
177 1 15.1173 38.911 8.43779 
250 1 18.1745 41.9287 12.7523 
270 1 18.1745 38.8845 12.7523 
320 2 16.8335 37.3584 12.8825 
324 2 15.1172 39.0823 10.4603 
364 2 16.4582 37.3929 8.30765 
428 2 13.7763 40.4292 8.56806 
445 2 16.834 40.4107 12.622 
460 2 13.7767 37.3929 8.30758 
461 2 13.4004 37.3584 12.8827 
472 2 16.4578 40.4292 8.56835 
484 2 13.4008 40.4107 12.622 
489 1 15.1173 37.3456 11.6571 
498 2 15.1172 41.7291 10.4437 
523 1 15.1173 41.9552 8.43799 
568 1 16.6459 40.4199 10.5951 
932 1 18.1751 37.4058 9.53314 
1009 2 18.1747 39.1106 10.7465 
1074 2 18.1747 41.7575 10.7299 
2409 1 1.35909 3.83667 19.2239 
2375 2 2.88774 2.49907 19.0892 
2361 2 1.54682 3.84588 17.1969 
2341 2 4.22834 3.84588 17.1972 
2334 2 2.88774 5.1459 19.0724 
2300 1 4.41641 3.83666 19.2239 
2294 2 5.94524 2.52744 19.3754 
2263 2 5.94523 5.17427 19.3587 
2201 1 5.94562 0.822615 18.162 
636 1 2.88782 2.32785 17.0667 
1812 1 4.4165 0.819036 14.9095 
1810 1 1.35919 0.819029 14.9095 
1799 1 5.94527 3.83309 15.9715 
1792 2 1.54726 0.809822 16.9364 
1768 2 4.22877 0.809824 16.9365 
1760 2 2.88801 2.15663 15.0443 
1730 2 5.94516 2.12826 14.758 
1707 1 2.88839 3.89333 13.8476 
2195 1 7.47373 3.83667 19.2239 
2162 2 9.00238 2.49907 19.0892 
2158 2 7.66146 3.84588 17.1969 
2147 2 10.343 3.84588 17.1972 
2141 2 9.00238 5.1459 19.0724 
2107 1 10.5311 3.83666 19.2239 
2102 2 12.0599 2.52744 19.3754 
2083 2 12.0599 5.17427 19.3587 
2033 1 12.0603 0.822614 18.162 
1630 1 10.5311 0.819036 14.9095 
1614 1 7.47383 0.819028 14.9095 
1609 1 12.0599 3.83309 15.9715 
1599 2 7.6619 0.809822 16.9364 
1595 2 10.3434 0.809824 16.9365 
1586 2 9.00265 2.15663 15.0443 
1570 2 12.0598 2.12826 14.758 
1557 1 9.00304 3.89333 13.8476 
1089 1 9.00246 2.32785 17.0667 
2026 1 13.5884 3.83667 19.2239 
2001 2 15.117 2.49907 19.0892 
1995 2 13.7761 3.84588 17.1969 
1991 2 16.4576 3.84588 17.1972 
1984 2 15.117 5.1459 19.0724 
1961 1 16.6457 3.83666 19.2239 
1948 2 18.1745 2.52744 19.3754 
1916 2 18.1745 5.17427 19.3587 
1871 1 18.1749 0.822614 18.162 
997 1 15.1171 2.32785 17.0667 
1470 1 16.6458 0.819036 14.9095 
1462 1 13.5885 0.819029 14.9095 
1459 1 18.1746 3.83309 15.9715 
1450 2 13.7765 0.809822 16.9364 
1434 2 16.4581 0.809825 16.9365 
1429 2 15.1173 2.15663 15.0443 
1396 2 18.1744 2.12826 14.758 
1387 1 15.1177 3.89333 13.8476 
2324 1 2.88782 5.37203 17.0667 
847 1 2.88839 9.98168 13.8476 
1680 2 2.88802 5.59816 15.061 
1672 2 5.94516 5.56979 14.7748 
896 2 5.94516 8.21662 14.758 
928 2 2.88801 8.24499 15.0443 
941 2 4.22877 6.89818 16.9365 
971 2 1.54726 6.89818 16.9364 
980 1 5.94527 9.92144 15.9715 
1511 1 1.35909 9.92503 19.2239 
1005 1 1.35919 6.90738 14.9095 
1015 1 4.4165 6.90739 14.9095 
1492 1 2.88782 8.41621 17.0667 
1454 2 2.88774 8.58742 19.0892 