LAMMPS (7 Aug 2019)
Created orthogonal box = (0 0 0) to (18.5604 42.4 40)
  2 by 4 by 4 MPI processor grid
Reading data file ...
  orthogonal box = (0 0 -0.171776) to (18.5604 42.4 41.6292)
  2 by 4 by 4 MPI processor grid
  reading atoms ...
  2577 atoms
  reading velocities ...
  2577 velocities
  read_data CPU = 0.0137707 secs
719 atoms in group boundary
1149 atoms in group Fe
1428 atoms in group O
312 atoms in group Feb
407 atoms in group Ob
Reading potential file ffield.reax.Fe_O_C_H with DATE: 2011-02-18
Neighbor list info ...
  update every 1 steps, delay 5 steps, check yes
  max neighbors/atom: 2000, page size: 100000
  master list distance cutoff = 10.3
  ghost atom cutoff = 10.3
  binsize = 5.15, bins = 4 9 9
  2 neighbor lists, perpetual/occasional/extra = 2 0 0
  (1) pair reax/c, perpetual
      attributes: half, newton off, ghost
      pair build: half/bin/newtoff/ghost
      stencil: half/ghost/bin/3d/newtoff
      bin: standard
  (2) fix qeq/reax, perpetual, copy from (1)
      attributes: half, newton off, ghost
      pair build: copy
      stencil: none
      bin: none
Setting up Verlet run ...
  Unit style    : real
  Current step  : 0
  Time step     : 0.2
Per MPI rank memory allocation (min/avg/max) = 36.41 | 45.46 | 53.73 Mbytes
Step PotEng c_T c_avesqdispFe1 c_avesqdispFe2 c_avesqdispFe3 c_avesqdispFe4 c_avesqdispO1 c_avesqdispO2 c_avesqdispO3 c_avesqdispO4 
       0   -294261.51          900            0            0            0            0            0            0            0            0 
      10   -294265.26    900.46468 5.4338532e-05 5.9646133e-05 5.6328331e-05  0.000170313 0.00018440327 0.00018292516 0.00019255959 0.00055988802 
      20   -294275.12          900  0.000217773 0.00023965342 0.00022577949 0.00068320591 0.00073036075 0.00072966711 0.00077198844 0.0022320163 
      30   -294305.44          900 0.00049012936 0.00054078144 0.00050834125  0.001539252 0.0016220947 0.0016341844 0.0017347245 0.0049910037 
      40   -294354.38          900 0.00087045153 0.0009625508 0.00091289112 0.0027458934 0.0028392961 0.0028860447 0.0030699088 0.0087952496 
      50   -294419.98          900  0.001357036 0.0015030768  0.001417993 0.0042781058 0.0043583331 0.0044697604 0.0047583429  0.013586436 
      60   -294496.11          900  0.001947151 0.0021590848 0.0020322621 0.0061384979 0.0061540006 0.0063634302 0.0067726841  0.019290115 
      70   -294584.75          900 0.0026375933 0.0029256092 0.0027402914 0.0083034939 0.0082007833 0.0085392499 0.0090807604  0.025820794 
      80   -294667.57          900 0.0034248907 0.0037952084  0.003538695  0.010758794  0.010470524  0.010963585  0.011646203  0.033080313 
      90   -294747.54          900 0.0043058556 0.0047606202 0.0044092453  0.013475721  0.012936627  0.013603256   0.01443352  0.040973402 
     100   -294826.58          900 0.0052766533 0.0058141623 0.0053691705  0.016459986  0.015571393  0.016428318  0.017406236  0.049405947 
     110   -294899.43          900 0.0063340254 0.0069479391 0.0064009717  0.019682936  0.018349934  0.019409528  0.020527073  0.058286534 
     120   -294971.12          900 0.0074750806 0.0081540683 0.0074875845  0.023116733  0.021248482  0.022507872  0.023760632  0.067516985 
     130   -295039.49          900 0.0086956945 0.0094243772 0.0086444684   0.02676454  0.024239141  0.025686331  0.027073098   0.07699857 
     140   -295103.75          900 0.0099907003   0.01075135 0.0098929779  0.030635028  0.027293841  0.028915705  0.030429053    0.0866386 
     150   -295156.57          900  0.011353828  0.012128183  0.011150639   0.03463265  0.030382151   0.03216859  0.033789814  0.096340555 
     160   -295196.76          900   0.01277744  0.013549929   0.01245424  0.038781609  0.033471775  0.035417596   0.03711567   0.10600504 
     170      -295237          900  0.014253277  0.015011896  0.013894194  0.043159367  0.036530026   0.03862999  0.040371535   0.11553155 
     180   -295273.85          900  0.015772231  0.016507603  0.015274154  0.047553988  0.039524751  0.041766206  0.043523392   0.12481435 
     190    -295300.8          900  0.017324922  0.018031539  0.016686475  0.052042936  0.042430451  0.044788299   0.04654196   0.13376071 
     200   -295314.08          900  0.018903535  0.019579015  0.018349341  0.056831891  0.045226715  0.047666637  0.049402679   0.14229603 
     210   -295318.87    900.63146  0.020500134  0.021146099  0.019807062  0.061453295  0.047895145  0.050383909  0.052085932   0.15036499 
     220   -295317.98    900.52153  0.022109189  0.022729639  0.021322533  0.066161362  0.050420983   0.05292648  0.054577454   0.15792492 
     230   -295322.01          900  0.023725052  0.024322853  0.022808472  0.070856377  0.052794082  0.055277877  0.056861915   0.16493387 
     240   -295335.34          900  0.025339724   0.02591839   0.02430449  0.075562604  0.055002818  0.057416466  0.058922342   0.17134163 
     250   -295365.07          900  0.026945555  0.027510859  0.025690141  0.080146555  0.057035916  0.059325629  0.060747088   0.17710863 
     260   -295407.84          900  0.028534444  0.029092159  0.027204114  0.084830718  0.058885459  0.060993921   0.06233241   0.18221179 
     270   -295441.46          900   0.03010003  0.030653581   0.02871882  0.089472431  0.060555143  0.062415758   0.06368003   0.18665093 
     280   -295451.87          900  0.031637096  0.032186838  0.030137723  0.093961657  0.062063193  0.063585786  0.064793591   0.19044257 
     290   -295457.15    900.69972   0.03314065  0.033689597  0.031658122  0.098488369  0.063416341  0.064504206  0.065671433   0.19359198 
     300   -295464.54          900  0.034606295  0.035163639  0.033177977   0.10294791   0.06460905  0.065176487  0.066311232   0.19609677 
     310   -295471.87    900.99621  0.036030232  0.036609221  0.034647806   0.10728726  0.065637267  0.065608898  0.066715465   0.19796163 
     320   -295479.97          900  0.037414504  0.038028337   0.03615262   0.11159546  0.066504288  0.065811363  0.066898081   0.19921373 
     330   -295494.16          900  0.038758095  0.039421797  0.037629191   0.11580908  0.067217713  0.065799082  0.066878756   0.19989555 
     340   -295504.52          900  0.040061836  0.040789348  0.039089117    0.1199403  0.067797736  0.065593373  0.066678239   0.20006935 
     350   -295504.87    900.02956  0.041325443  0.042121153  0.040518942   0.12396554    0.0682693  0.065213775  0.066322191   0.19980527 
     360   -295502.79    899.72616  0.042552681  0.043408733  0.041924589     0.127886  0.068648009  0.064688937   0.06582029   0.19915724 
     370    -295504.1    899.87973  0.043747887  0.044646664  0.043294179   0.13168873  0.068943536  0.064056506   0.06517802   0.19817806 
     380   -295512.22    900.92603  0.044913156  0.045830217  0.044633234   0.13537661  0.069164725  0.063353356  0.064412266   0.19693035 
     390   -295515.74          900  0.046047775  0.046956027  0.045932964   0.13893677    0.0693161  0.062614154  0.063547886   0.19547814 
     400   -295506.06          900  0.047148749  0.048023766  0.047193838   0.14236635   0.06939773  0.061872487  0.062606864   0.19387708 
     410   -295488.86          900  0.048215376  0.049040889  0.048473692   0.14572996  0.069405003  0.061165586  0.061596231   0.19216682 
     420   -295475.62          900  0.049245034  0.050012534  0.049649001   0.14890657   0.06933476  0.060523777  0.060535197   0.19039373 
     430   -295459.15          900  0.050235703  0.050939401  0.050773059   0.15194816  0.069185798   0.05996686  0.059463544    0.1886162 
     440   -295437.27          900  0.051185993  0.051823588  0.052039135   0.15504872  0.068957739  0.059506145  0.058427425   0.18689131 
     450   -295415.17          900  0.052095566  0.052665907  0.053068939   0.15783041  0.068659266  0.059145634  0.057465985   0.18527088 
     460   -295399.68          900  0.052967379  0.053464672  0.054285876   0.16071793  0.068306361  0.058886051   0.05661242   0.18380483 
     470   -295383.74          900  0.053804666  0.054220508  0.055213497   0.16323867  0.067917386  0.058726544  0.055896874    0.1825408 
     480   -295372.57          900  0.054609548  0.054935851  0.056086082   0.16563148   0.06751238   0.05866217   0.05535041   0.18152496 
     490    -295367.9    899.36286  0.055381953  0.055613732  0.057138552   0.16813424  0.067110124   0.05868656  0.054994713    0.1807914 
     500   -295361.95          900  0.056120264  0.056259161  0.057901461   0.17028089  0.066723578    0.0587951  0.054835561   0.18035424 
     510   -295348.16          900  0.056825065  0.056882229  0.058833684   0.17254098  0.066356881  0.058986276  0.054868801   0.18021196 
     520    -295327.8          900  0.057496248  0.057489839  0.059477314    0.1744634    0.0660086  0.059265321  0.055084264   0.18035819 
     530   -295307.47          900  0.058135846  0.058081447  0.060057812   0.17627511  0.065688936   0.05962739   0.05546857    0.1807849 
     540   -295285.92          900    0.0587527   0.05866055   0.06107532   0.17848857  0.065406261   0.06005677  0.055999211   0.18146224 
     550   -295267.44          900   0.05935258  0.059232254  0.061540903   0.18012574  0.065171969  0.060544693  0.056648297   0.18236496 
     560   -295252.58          900  0.059939748  0.059799951  0.061948014   0.18168771  0.065010353  0.061081283  0.057394463    0.1834861 
     570   -295240.47          900   0.06051924  0.060367223  0.062833183   0.18371965  0.064948971  0.061648617  0.058225986   0.18482357 
     580   -295232.65          900  0.061091696   0.06093963  0.063151537   0.18518286  0.065004251  0.062233719   0.05913418   0.18637215 
     590   -295234.34    900.22011  0.061656028   0.06152162  0.063428708   0.18660636  0.065185456  0.062830751   0.06011356   0.18812977 
     600   -295248.27          900  0.062214173  0.062116426  0.064232534   0.18856313  0.065496736  0.063433873  0.061164775   0.19009538 
     610   -295266.46          900  0.062763191  0.062724084  0.064448521    0.1899358  0.065934434  0.064038991  0.062294706   0.19226813 
     620   -295282.96          900  0.063295871  0.063346211  0.065162681   0.19180476  0.066490459  0.064653955  0.063502251   0.19464667 
     630   -295282.43    899.91795  0.063806695  0.063984279   0.06532406   0.19311503  0.067158238  0.065295378  0.064774815   0.19722843 
     640   -295285.34     900.2972  0.064302765  0.064635772  0.065450287   0.19438882  0.067930313  0.065972363  0.066106266   0.20000894 
     650   -295292.43          900  0.064792145  0.065300381  0.065835484   0.19592801  0.068796914  0.066683315   0.06748859   0.20296882 
     660   -295295.99    900.45904  0.065276057  0.065982657  0.065888947   0.19714766  0.069747942  0.067427906   0.06890228   0.20607813 
     670   -295300.24          900    0.0657557  0.066687874  0.066036124    0.1984797  0.070770447  0.068213315  0.070328646   0.20931241 
     680   -295289.99          900  0.066232083    0.0674136  0.066014195   0.19965988  0.071842708  0.069036033   0.07175366    0.2126324 
     690   -295281.44          900   0.06670396  0.068154539  0.065959994   0.20081849  0.072944004   0.06988933  0.073166155   0.21599949 
     700   -295271.89          900  0.067171383  0.068903774  0.066510175   0.20258533  0.074059935  0.070764118  0.074549861   0.21937391 
     710   -295265.97    899.23929  0.067633403  0.069657268   0.06641018   0.20370085   0.07517455  0.071653833  0.075882325   0.22271071 
     720   -295265.63    899.19098  0.068087514  0.070411197  0.066293086    0.2047918  0.076265367  0.072552667  0.077138471    0.2259565 
     730   -295270.34    899.80336  0.068534027  0.071160052  0.066756013   0.20645009  0.077311095  0.073452327  0.078309526   0.22907295 
     740   -295263.23          900   0.06897467  0.071896876  0.066624221   0.20749577  0.078304743  0.074346494  0.079397505   0.23204874 
     750   -295259.61    899.49885   0.06941079  0.072619487  0.066846759   0.20887704  0.079251632  0.075226432  0.080398546   0.23487661 
     760   -295271.75          900  0.069848238   0.07332543  0.066725731    0.2098994  0.080143702  0.076081795   0.08130204   0.23752754 
     770   -295281.64          900  0.070295526  0.074010856   0.06672472    0.2110311  0.080976556   0.07690365  0.082095175   0.23997538 
     780   -295277.08    899.39776  0.070753182  0.074674855  0.066639419   0.21206746  0.081762955  0.077683325  0.082763339   0.24220962 
     790   -295266.71          900  0.071220268  0.075321366  0.066574396   0.21311603  0.082516103  0.078412961  0.083294605   0.24422367 
     800   -295257.98          900  0.071694701  0.075950299  0.066526658   0.21417166  0.083252848  0.079082423  0.083687112   0.24602238 
     810    -295255.3     899.6369  0.072173707  0.076558212  0.066506842   0.21523876   0.08398474   0.07968059  0.083952411   0.24761774 
     820   -295258.83    900.08283  0.072659278   0.07714746  0.066476333   0.21628307  0.084714448   0.08018926  0.084108275   0.24901198 
     830   -295257.95    899.97788  0.073152766   0.07772208  0.066493494   0.21736834  0.085439698  0.080596098  0.084170683   0.25020648 
     840   -295259.73    900.18945  0.073650385  0.078285868  0.066530534   0.21846679  0.086156999  0.080912116  0.084153358   0.25122247 
     850    -295274.7          900  0.074144317  0.078842989  0.066444829   0.21943214  0.086864887  0.081158682   0.08406458   0.25208815 
     860   -295283.96          900  0.074624793  0.079392493  0.066526843   0.22054413  0.087563357  0.081357233  0.083910727   0.25283132 
     870    -295288.1    900.51912  0.075080814  0.079929463  0.066628066   0.22163834  0.088255781  0.081526666  0.083698576   0.25348102 
     880   -295278.34    899.27441  0.075507035  0.080453218  0.066431639   0.22239189  0.088939795   0.08167997  0.083427395   0.25404716 
     890    -295263.4          900  0.075902875  0.080966231  0.066573393    0.2234425  0.089608119  0.081829741  0.083090354   0.25452821 
     900   -295234.86          900   0.07627295  0.081470913  0.066218028   0.22396189  0.090252228  0.081986211  0.082684392   0.25492283 
     910    -295207.4          900  0.076624901  0.081974658  0.066401921   0.22500148  0.090859759  0.082152795  0.082215024   0.25522758 
     920   -295178.58          900  0.076960725  0.082483313  0.066593246   0.22603728  0.091420448  0.082333856  0.081686125   0.25544043 
     930   -295161.88          900  0.077281176  0.082997562  0.066144532   0.22642327  0.091928256  0.082532548  0.081101753   0.25556256 
     940   -295156.24    899.26979  0.077589169  0.083519002  0.066345374   0.22745355  0.092378979  0.082745546  0.080469918   0.25559444 
     950   -295154.71    899.08257  0.077884866   0.08404948  0.066536859   0.22847121  0.092765313  0.082980834  0.079802965   0.25554911 
     960   -295149.14          900  0.078165015   0.08459135  0.066109657   0.22886602  0.093079729  0.083250446  0.079113981   0.25544416 
     970   -295140.83          900  0.078427474   0.08514605  0.066284817   0.22985834  0.093311867  0.083561732   0.07841182   0.25528542 
     980   -295131.49          900   0.07867006  0.085710036  0.065927495   0.23030759   0.09345452  0.083916431   0.07769954   0.25507049 
     990   -295134.47    900.42116  0.078891048  0.086279488  0.066096556   0.23126709  0.093501512  0.084312046  0.076979495   0.25479305 
    1000   -295140.84          900  0.079091421  0.086847317  0.066260073   0.23219881  0.093454019  0.084735573  0.076258065   0.25444766 
    1010   -295152.69          900  0.079276095  0.087400931  0.066133141   0.23281017  0.093326375  0.085168546  0.075542483    0.2540374 
    1020   -295167.12          900  0.079448588  0.087932367  0.066304105   0.23368506  0.093131835  0.085603073  0.074835198   0.25357011 
    1030   -295171.34    900.54946  0.079609985  0.088436153  0.066474108   0.23452025  0.092883586  0.086038286  0.074139047   0.25306092 
    1040   -295172.22     900.6589  0.079761217  0.088907638  0.066664913   0.23533377  0.092594854  0.086473994  0.073465575   0.25253442 
    1050   -295167.21    899.99042   0.07990481  0.089346625  0.066833105   0.23608454  0.092276561  0.086906214  0.072835507   0.25201828 
    1060   -295146.74          900  0.080043351  0.089755351  0.066994802    0.2367935  0.091932177  0.087339539  0.072263166   0.25153488 
    1070    -295130.5          900  0.080176707  0.090135916  0.067140238   0.23745286  0.091560821  0.087771843  0.071753712   0.25108638 
    1080   -295123.53    899.11502  0.080298183  0.090493102  0.067272669   0.23806395  0.091169821  0.088183298  0.071309728   0.25066285 
    1090   -295119.92          900   0.08040534  0.090825767   0.06737713   0.23860824  0.090768424  0.088553851  0.070930148   0.25025242 
    1100   -295126.91    900.92055  0.080502026   0.09113151   0.06748219   0.23911573  0.090362253  0.088871735    0.0706123   0.24984629 
    1110   -295144.76          900  0.080591944  0.091409364   0.06755504   0.23955635  0.089956545  0.089137741  0.070353168   0.24944745 
    1120   -295163.43          900  0.080674017  0.091657964  0.067636431   0.23996841  0.089557093  0.089350441  0.070148993   0.24905653 
    1130   -295174.63          900  0.080745946  0.091875452  0.067710597     0.240332  0.089179785  0.089499625  0.069997689    0.2486771 
    1140   -295181.59    900.87202  0.080810239  0.092066334  0.067756813   0.24063339  0.088837635  0.089586747  0.069898209   0.24832259 
    1150   -295192.01          900  0.080866584  0.092238056  0.067815149   0.24091979  0.088535633  0.089616253  0.069856656   0.24800854 
    1160   -295209.52          900  0.080917447  0.092392883  0.067860517   0.24117085  0.088273431  0.089584165  0.069888529   0.24774612 
    1170   -295223.42          900  0.080970048   0.09252713  0.067856607   0.24135379  0.088044365  0.089496499   0.06999705   0.24753791 
    1180   -295234.36          900  0.081029597  0.092641567  0.067870242   0.24154141  0.087818899  0.089384399  0.070171498    0.2473748 
    1190   -295252.36          900  0.081103453  0.092733943  0.067804809    0.2416422  0.087584308  0.089279079  0.070410732   0.24727412 
    1200   -295273.84          900  0.081198668  0.092804154   0.06777612   0.24177894  0.087344361  0.089195106  0.070719212   0.24725868 
    1210   -295306.05          900  0.081322054   0.09285495  0.067723149   0.24190015  0.087105554  0.089137722  0.071098597   0.24734187 
    1220   -295333.51          900   0.08147897  0.092888011  0.067596991   0.24196397  0.086877381  0.089114701   0.07154789   0.24753997 
    1230   -295350.05          900   0.08166973  0.092901415  0.067499085   0.24207023  0.086670077  0.089119376  0.072065586   0.24785504 
    1240   -295363.88          900  0.081891632  0.092894884  0.067381631   0.24216815  0.086489878  0.089133208  0.072650569   0.24827365 
    1250   -295358.18    899.22669  0.082141642  0.092871552  0.067230096   0.24224329  0.086347097  0.089142602  0.073298971   0.24878867 
    1260   -295353.81          900  0.082416374  0.092835048  0.067081781    0.2423332   0.08626483  0.089137646  0.074012039   0.24941451 
    1270   -295360.82    900.89785  0.082711718  0.092788815  0.066932199   0.24243273  0.086273971  0.089106877   0.07479241   0.25017326 
    1280    -295373.9          900  0.083024308  0.092739302   0.06679599    0.2425596  0.086373533  0.089044748  0.075629485   0.25104777 
    1290   -295372.62    899.83981  0.083351136  0.092690787  0.066648495   0.24269042  0.086553608  0.088956863  0.076504569   0.25201504 
    1300   -295364.91          900  0.083692402  0.092647299  0.066538526   0.24287823  0.086805003  0.088857105  0.077406919   0.25306903 
    1310   -295362.98    899.73447  0.084046677  0.092607339  0.066389163   0.24304318  0.087111273  0.088754766  0.078329277   0.25419532 
    1320   -295366.36    900.18579  0.084410289  0.092563526  0.066248658   0.24322247  0.087452602  0.088671488  0.079264062   0.25538815 
    1330    -295386.3          900  0.084778546  0.092509603  0.066175631   0.24346378  0.087824165  0.088629606  0.080210177   0.25666395 
    1340   -295401.65          900  0.085147055  0.092443188  0.066046977   0.24363722  0.088216698  0.088646102  0.081160976   0.25802378 
    1350   -295404.74    900.41941  0.085514295  0.092361486  0.065925484   0.24380126  0.088613679  0.088722811  0.082112604   0.25944909 
    1360   -295393.96    899.03874  0.085876918  0.092263459  0.065890141   0.24403052  0.088996473  0.088852831  0.083054426   0.26090373 
    1370    -295390.1          900    0.0862296  0.092155038  0.065775712   0.24416035  0.089342773  0.089035279  0.083964945     0.262343 
    1380   -295387.29     899.6625  0.086570648  0.092037075  0.065665399   0.24427312  0.089633381  0.089259127   0.08482916   0.26372167 
    1390   -295384.25     899.2867  0.086897004  0.091908863  0.065647306   0.24445317  0.089854053  0.089508594  0.085636014   0.26499866 
    1400   -295383.11    899.16632  0.087199279  0.091771926  0.065536949   0.24450815  0.090003128  0.089775278  0.086378394    0.2661568 
    1410   -295381.86     899.0391  0.087463124  0.091629188  0.065424214   0.24451653  0.090098813  0.090057997  0.087056448   0.26721326 
    1420   -295390.23    900.15517  0.087677044   0.09148554  0.065179858   0.24434244  0.090161181  0.090350643  0.087680683   0.26819251 
    1430   -295401.44          900  0.087834124  0.091344659  0.065066697   0.24424548  0.090203924   0.09064613   0.08826325   0.26911331 
    1440   -295409.66          900  0.087928836  0.091208103  0.064949345   0.24408628  0.090244482  0.090944951   0.08881059   0.27000002 
    1450   -295414.11    900.58538  0.087962381  0.091076376  0.064816844    0.2438556  0.090300782  0.091251268  0.089327093   0.27087914 
    1460   -295415.46    900.70565  0.087943827  0.090945047  0.064688347   0.24357722  0.090387833   0.09156338  0.089822194   0.27177341 
    1470   -295408.42    899.76299  0.087891094  0.090803375  0.064555757   0.24325023  0.090509846  0.091867166  0.090310499   0.27268751 
    1480   -295382.47          900  0.087816449  0.090646856  0.064430989   0.24289429  0.090663619  0.092148733  0.090801596   0.27361395 
    1490   -295345.54          900  0.087723804  0.090476288  0.064296664   0.24249676  0.090856611   0.09240752  0.091298708   0.27456284 
    1500   -295311.13          900  0.087615657  0.090294352  0.064169675   0.24207968  0.091103901  0.092651146   0.09180303   0.27555808 
    1510   -295280.67          900  0.087494413  0.090101648  0.064038004   0.24163407  0.091417695  0.092885283   0.09231206   0.27661504 
    1520   -295255.71          900  0.087363309  0.089897354  0.063908816   0.24116948  0.091804177  0.093112992  0.092815691   0.27773286 
    1530   -295228.28          900   0.08722445  0.089686081  0.063770531   0.24068106  0.092262987  0.093340613  0.093296943   0.27890054 
    1540   -295202.45          900  0.087072526  0.089482074  0.063642815   0.24019741  0.092790187  0.093578614  0.093738028   0.28010683 
    1550   -295178.27          900  0.086902011  0.089300755  0.063491482   0.23969425  0.093377201  0.093829815  0.094116612   0.28132363 
    1560   -295167.12          900  0.086716122  0.089149191  0.063358747   0.23922406  0.094012427  0.094093003  0.094414931   0.28252036 
    1570   -295168.89    900.27162   0.08652124  0.089028788  0.063224278   0.23877431  0.094675432  0.094367136  0.094615991   0.28365856 
    1580    -295165.7    899.84296  0.086320241  0.088939022  0.063071416   0.23833068   0.09534043  0.094652939  0.094693434    0.2846868 
    1590   -295161.52    899.31066  0.086111916  0.088876601  0.062944538   0.23793305  0.095982688  0.094953849   0.09463476    0.2855713 
    1600    -295162.3     899.4392   0.08589701  0.088835714  0.062827464   0.23756019   0.09659115  0.095268199  0.094440695   0.28630005 
    1610   -295167.49    900.12612  0.085678516  0.088809776  0.062704946   0.23719324  0.097163132   0.09559315  0.094119973   0.28687626 
    1620   -295175.78          900   0.08545882  0.088791541    0.0626078   0.23685816  0.097704354  0.095926158   0.09369071   0.28732122 
    1630   -295178.87    900.42485  0.085239697  0.088776744  0.062516106   0.23653255  0.098227128     0.096265  0.093180514   0.28767264 
    1640   -295192.17          900  0.085023537  0.088766155  0.062447907    0.2362376  0.098738463  0.096595663  0.092611117   0.28794524 
    1650   -295211.94          900  0.084815897  0.088756723  0.062368294   0.23594091    0.0992418  0.096887078  0.092008661   0.28813754 
    1660   -295226.91          900  0.084620521  0.088747064  0.062298053   0.23566564  0.099745154  0.097106873   0.09140207    0.2882541 
    1670   -295233.86    900.91332  0.084438204  0.088745508  0.062298613   0.23548232   0.10024821  0.097230234  0.090814084   0.28829253 
    1680   -295234.61     900.9975  0.084269655  0.088761016  0.062247923   0.23527859   0.10074556  0.097234212  0.090261567   0.28824134 
    1690   -295232.96    900.77387  0.084115309  0.088797892   0.06228473   0.23519793   0.10123902  0.097099547  0.089758905   0.28809747 
    1700   -295232.15    900.64959  0.083975376  0.088854371  0.062255238   0.23508498   0.10174044  0.096813391  0.089320609   0.28787444 
    1710   -295228.68     900.1873  0.083849732  0.088927844  0.062239732   0.23501731   0.10225816  0.096377645   0.08895829   0.28759409 
    1720   -295219.93    899.04368  0.083739811  0.089018208  0.062337817   0.23509584   0.10279586  0.095806753  0.088676225   0.28727884 
    1730   -295222.44    899.34365  0.083645817  0.089125957  0.062365601   0.23513737   0.10335673  0.095121681  0.088469486    0.2869479 
    1740   -295235.48          900  0.083564925  0.089249341  0.062529684   0.23534395   0.10393747  0.094342717  0.088327977   0.28660816 
    1750   -295247.82          900  0.083496901  0.089384447  0.062611772   0.23549312   0.10452808  0.093490154  0.088239381   0.28625761 
    1760    -295263.5          900    0.0834414  0.089528316  0.062724274   0.23569399   0.10511408  0.092588247  0.088187143   0.28588947 
    1770   -295274.56          900  0.083395097  0.089680615   0.06296332   0.23603903   0.10567863  0.091662731  0.088146801   0.28548817 
    1780   -295277.95    900.41662  0.083351381  0.089840803  0.063139093   0.23633128   0.10620299  0.090734057  0.088095048    0.2850321 
    1790    -295275.6    900.06586  0.083306823  0.090007116  0.063400714   0.23671465   0.10665767  0.089826472  0.088010791   0.28449493 
    1800   -295265.59          900  0.083260087  0.090175995  0.063632106   0.23706819   0.10701529  0.088957939  0.087872107   0.28384534 
    1810   -295248.11          900  0.083209288  0.090341355  0.063889812   0.23744046   0.10726309  0.088140763  0.087660439   0.28306429 
    1820   -295236.35          900  0.083151389  0.090497894  0.064198444   0.23784773   0.10739953  0.087396252  0.087365792   0.28216157 
    1830   -295234.24    899.70446  0.083081285  0.090646853  0.064504294   0.23823243   0.10742246  0.086751255  0.086978799   0.28115251 
    1840   -295245.15          900  0.082996734  0.090786221  0.064831812   0.23861477   0.10733052  0.086221664   0.08650062    0.2800528 
    1850   -295258.91          900  0.082894724  0.090910658  0.065215298   0.23902068   0.10712403  0.085815664  0.085943418   0.27888312 
    1860   -295277.95          900  0.082773174  0.091015518  0.065579881   0.23936857   0.10680788  0.085537169  0.085328102   0.27767315 
    1870   -295291.26          900  0.082633415  0.091096501  0.065905059   0.23963497   0.10638715  0.085387386  0.084677485   0.27645203 
    1880   -295288.84    899.66898  0.082477323  0.091151189  0.066276556   0.23990507   0.10586777  0.085363995   0.08401106   0.27524282 
    1890   -295277.46          900   0.08230617  0.091177583  0.066640562   0.24012431   0.10526238  0.085455609  0.083348291   0.27406628 
    1900   -295265.76          900  0.082123511  0.091171856  0.066819986   0.24011535    0.1045811  0.085649371  0.082702583   0.27293306 
    1910    -295249.8          900   0.08193021  0.091131964  0.067156682   0.24021886    0.1038305  0.085939988  0.082090358   0.27186085 
    1920   -295230.69          900  0.081728615  0.091056363  0.067478994   0.24026397   0.10301642  0.086328786  0.081538708   0.27088391 
    1930    -295199.9          900  0.081522382  0.090941514  0.067621296   0.24008519   0.10213773  0.086811941   0.08107156   0.27002123 
    1940   -295167.67          900  0.081317042  0.090783844   0.06791532   0.24001621   0.10118759   0.08738101  0.080706006   0.26927461 
    1950   -295138.75          900  0.081117068  0.090587209  0.068094043   0.23979832   0.10016286  0.088021861  0.080456137   0.26864086 
    1960   -295117.65          900  0.080922331  0.090357195  0.068352397   0.23963192  0.099068137  0.088718396  0.080326465     0.268113 
    1970    -295109.8          900  0.080732193  0.090100098  0.068590446   0.23942274  0.097909297  0.089451321  0.080312205   0.26767282 
    1980   -295120.48          900  0.080548053  0.089823392  0.068734286   0.23910573  0.096692011  0.090193809  0.080405515   0.26729134 
    1990    -295129.9          900  0.080373222  0.089537141  0.068925055   0.23883542   0.09542637  0.090906033  0.080596224   0.26692863 
    2000   -295143.12          900  0.080210595  0.089250948  0.069087326   0.23854887  0.094123924  0.091552158  0.080862651   0.26653873 
    2010   -295171.94          900   0.08006393   0.08897233  0.069171647   0.23820791  0.092798668  0.092111787  0.081178018   0.26608847 
    2020   -295209.49          900  0.079938253  0.088713114  0.069278475   0.23792984  0.091468206  0.092577888  0.081522893   0.26556899 
    2030   -295247.19          900  0.079835169  0.088484182  0.069334744    0.2376541   0.09015159  0.092950654  0.081882012   0.26498426 
    2040   -295290.25          900  0.079753292  0.088283617  0.069390827   0.23742774  0.088875691  0.093231325  0.082243163   0.26435018 
    2050   -295330.69          900  0.079694207  0.088104527  0.069422739   0.23722147  0.087669289  0.093416183  0.082596969   0.26368244 
    2060   -295358.81          900  0.079652619  0.087945057  0.069429879   0.23702756  0.086555082  0.093508893  0.082932114   0.26299609 
    2070   -295384.09          900  0.079619513  0.087807843  0.069416901   0.23684426  0.085554656   0.09351065   0.08323893   0.26230424 
    2080   -295409.67          900  0.079589465  0.087699532  0.069418609   0.23670761  0.084689656   0.09341627  0.083513082   0.26161901 
    2090   -295425.59          900  0.079564068  0.087624926  0.069374012   0.23656301  0.083968053  0.093226963  0.083751269   0.26094629 
    2100   -295420.58    899.32072  0.079544311  0.087586916  0.069358968    0.2364902   0.08338352  0.092974323  0.083944237   0.26030208 
    2110   -295403.63          900  0.079530494  0.087582195  0.069287253   0.23639994  0.082934439  0.092682545  0.084090127   0.25970711 
    2120   -295376.86          900  0.079524344  0.087600956  0.069210463   0.23633576  0.082625959  0.092358042  0.084201407   0.25918541 
    2130   -295350.62          900  0.079528757   0.08763199  0.069167768   0.23632852  0.082461567  0.092003961  0.084297536   0.25876306 
    2140   -295321.99          900  0.079546948  0.087667581  0.069097009   0.23631154  0.082443213  0.091617939   0.08440275    0.2584639 
    2150   -295288.99          900  0.079582063   0.08770245  0.069060554   0.23634507  0.082573399  0.091192851  0.084537402   0.25830365 
    2160   -295257.37          900   0.07963467  0.087733792  0.069004039    0.2363725  0.082850028  0.090729339  0.084710598   0.25828997 
    2170   -295224.15          900  0.079701439  0.087761529  0.068960319   0.23642329  0.083264563  0.090232348  0.084920391    0.2584173 
    2180   -295189.59          900  0.079778976    0.0877788  0.068963811   0.23652159  0.083810087  0.089705947  0.085164491   0.25868052 
    2190   -295165.21          900  0.079862337  0.087780584  0.068966923   0.23660984   0.08447077  0.089165391  0.085434375   0.25907054 
    2200   -295146.45          900  0.079944337  0.087770155  0.068999249   0.23671374  0.085224495  0.088625836  0.085715102   0.25956543 
    2210   -295140.99      899.277  0.080015715  0.087745906  0.069084163   0.23684578  0.086051494  0.088095592   0.08599309   0.26014018 
    2220   -295146.02    899.95715  0.080071348  0.087702116  0.069170954   0.23694442  0.086928595  0.087587579  0.086254271   0.26077045 
    2230   -295145.25    899.84512  0.080115298  0.087632505  0.069282494    0.2370303  0.087828845  0.087113422  0.086488668   0.26143094 
    2240   -295136.66          900  0.080152637   0.08753164  0.069439247   0.23712352  0.088728173  0.086677655  0.086691843   0.26209767 
    2250   -295140.11     900.4605  0.080188222  0.087395481  0.069597815   0.23718152   0.08960688  0.086277119  0.086869259   0.26275326 
    2260   -295149.56          900  0.080229428  0.087222542  0.069768245   0.23722022  0.090444048  0.085910001  0.087033288   0.26338734 
    2270   -295151.81     900.2748  0.080286448  0.087011595  0.069953199   0.23725124  0.091211581  0.085579361  0.087194484   0.26398543 
    2280   -295151.28     900.1843    0.0803618  0.086761311  0.070143654   0.23726676  0.091889026   0.08529131  0.087354125   0.26453446 
    2290   -295149.98    900.00039  0.080451107  0.086475285  0.070267898   0.23719429  0.092469306  0.085052042  0.087505706   0.26502705 
    2300   -295146.17    899.49186  0.080546165  0.086155928  0.070458134   0.23716023  0.092953296  0.084863228  0.087641055   0.26545758 
    2310   -295141.43          900   0.08063833  0.085801926  0.070653202   0.23709346  0.093346135  0.084718339  0.087757821   0.26582229 
    2320   -295142.04    900.08688  0.080722291  0.085410556  0.070773903   0.23690675  0.093658096  0.084610747  0.087859872   0.26612871 
    2330   -295147.32    900.76547  0.080794832  0.084984073  0.070982931   0.23676184   0.09389782  0.084539093  0.087947264   0.26638418 
    2340   -295142.99    900.20587  0.080850769  0.084533807  0.071194337   0.23657891  0.094066019  0.084510976  0.088014065   0.26659106 
    2350   -295137.49    899.46864  0.080886633  0.084065916  0.071339549    0.2362921  0.094159242  0.084523719  0.088059143    0.2667421 
    2360   -295126.15          900  0.080901607  0.083583743   0.07153304   0.23601839   0.09417206  0.084571869  0.088090148   0.26683408 
    2370    -295112.7          900  0.080897579  0.083091245  0.071677102   0.23566593  0.094091972  0.084644094  0.088114936     0.266851 
    2380   -295116.54    900.50717  0.080878814  0.082596314  0.071845013   0.23532014   0.09390178  0.084728735  0.088138968   0.26676948 
    2390   -295134.55          900  0.080845404  0.082105318   0.07200191   0.23495263  0.093589245  0.084813932  0.088167474   0.26657065 
    2400   -295156.55          900  0.080794266  0.081621658  0.072117376    0.2345333  0.093147889  0.084892768  0.088200967   0.26624162 
    2410    -295183.6          900  0.080713965   0.08114956  0.072271057   0.23413458  0.092586902  0.084961345  0.088251396   0.26579964 
    2420   -295205.27          900  0.080595554   0.08068957  0.072429047   0.23371417  0.091924542  0.085017746  0.088325382   0.26526767 
    2430   -295219.88          900  0.080434491  0.080239886  0.072491237   0.23316561  0.091187477  0.085069487  0.088426403   0.26468337 
    2440   -295230.63          900  0.080230792  0.079801889  0.072643141   0.23267582  0.090406962  0.085119472  0.088557753   0.26408419 
    2450   -295247.11          900  0.079985954   0.07937897  0.072726893   0.23209182  0.089606783  0.085159368  0.088726071   0.26349222 
    2460   -295267.06          900  0.079702721  0.078973028  0.072851963   0.23152771  0.088810683  0.085190662  0.088944289   0.26294563 
    2470   -295272.54    900.75724  0.079385034  0.078581633  0.072970635    0.2309373  0.088039915  0.085201707  0.089224888   0.26246651 
    2480   -295268.24    900.22178  0.079039833  0.078202803  0.073074287   0.23031692  0.087306623  0.085167332  0.089562212   0.26203617 
    2490   -295269.99    900.48571  0.078676342  0.077838788  0.073202856   0.22971799  0.086629086  0.085073132  0.089924754   0.26162697 
    2500   -295275.33          900  0.078301734  0.077491034  0.073333618   0.22912639  0.086024117  0.084919609  0.090274909   0.26121863 
    2510   -295263.22          900  0.077916626  0.077162649  0.073462125    0.2285414  0.085518446  0.084702609  0.090595557   0.26081661 
    2520    -295244.3          900   0.07751932  0.076853419   0.07357247   0.22794521  0.085137909  0.084418297  0.090873251   0.26042946 
    2530   -295220.31          900  0.077107949  0.076561909  0.073666732   0.22733659  0.084893696  0.084064667  0.091091776   0.26005014 
    2540   -295203.49          900  0.076680421  0.076287706  0.073757379   0.22672551  0.084782056  0.083641888  0.091239971   0.25966392 
    2550   -295192.44          900  0.076233359  0.076029479    0.0738362   0.22609904  0.084787234  0.083155757  0.091317491   0.25926048 
    2560   -295185.27    899.11093  0.075764667  0.075785519  0.073916299   0.22546648  0.084889498  0.082619291  0.091329877   0.25883867 
    2570   -295169.62          900  0.075274192  0.075556293  0.074003418    0.2248339  0.085081568  0.082047134  0.091279944   0.25840865 
    2580   -295144.59          900  0.074762695  0.075340083  0.074086089   0.22418887   0.08535391   0.08145143  0.091171286   0.25797663 
    2590   -295111.06          900  0.074233309  0.075132352  0.074170147   0.22353581  0.085684219  0.080852421  0.091006086   0.25754272 
    2600   -295071.76          900  0.073691497  0.074929343  0.074259852   0.22288069  0.086038773   0.08027375  0.090790828   0.25710335 
    2610   -295043.78          900  0.073142955  0.074727266  0.074351162   0.22222138  0.086391357  0.079723349  0.090532367   0.25664707 
    2620   -295040.48    899.55244  0.072593723  0.074523572  0.074449094   0.22156639  0.086723208  0.079200287  0.090240862   0.25616436 
    2630   -295044.84    900.10046  0.072051824   0.07432532  0.074544578   0.22092172  0.087015668  0.078712767  0.089920074   0.25564851 
    2640   -295047.74    900.42951  0.071520748  0.074141244  0.074648194   0.22031019  0.087250596   0.07827057  0.089569677   0.25509084 
    2650   -295052.87          900  0.071001879  0.073974295  0.074718523    0.2196947  0.087423478  0.077868931  0.089196317   0.25448873 
    2660   -295065.59          900  0.070498601  0.073828167  0.074814472   0.21914124   0.08753275  0.077492401  0.088800186   0.25382534 
    2670   -295078.44          900   0.07001622  0.073702171  0.074899302   0.21861769  0.087571046  0.077130549   0.08838215   0.25308374 
    2680   -295093.72          900  0.069558779  0.073591593    0.0749011   0.21805147  0.087543753  0.076789876  0.087944594   0.25227822 
    2690   -295104.87          900  0.069124639  0.073491886  0.074946008   0.21756253  0.087448574  0.076479968  0.087491367   0.25141991 
    2700   -295113.85          900  0.068708032  0.073395231  0.074885109   0.21698837  0.087273614  0.076210446  0.087041653   0.25052571 
    2710   -295129.73          900  0.068305973  0.073297679  0.074871633   0.21647528  0.087020004  0.075994566  0.086613585   0.24962815 
    2720   -295157.54          900  0.067917068  0.073199288  0.074822985   0.21593934  0.086694702  0.075844956  0.086221481   0.24876114 
    2730   -295185.13          900  0.067541556  0.073096261  0.074648055   0.21528587  0.086309455  0.075771625  0.085882294   0.24796337 
    2740   -295207.69          900  0.067181955  0.072984224  0.074521321    0.2146875  0.085884183  0.075784166  0.085605547    0.2472739 
    2750   -295218.79          900  0.066844829   0.07286019  0.074313495   0.21401851  0.085450282  0.075885159  0.085390233   0.24672567 
    2760   -295234.19          900  0.066539126    0.0727252  0.074133508   0.21339783  0.085028867   0.07606993  0.085230596   0.24632939 
    2770   -295251.27          900  0.066271603    0.0725832  0.073934887   0.21278969  0.084623298   0.07633287  0.085120275   0.24607644 
    2780   -295268.83          900  0.066042716   0.07243888  0.073707673   0.21218927  0.084233058  0.076671443  0.085051068   0.24595557 
    2790   -295290.28          900  0.065849876   0.07229763  0.073478333   0.21162584  0.083848559  0.077080048   0.08502048   0.24594909 
    2800   -295312.37          900   0.06568628  0.072164168  0.073241021   0.21109147  0.083450972  0.077544934  0.085028114   0.24602402 
    2810   -295323.28          900   0.06554351  0.072046567  0.073000399   0.21059048   0.08302723  0.078048374  0.085065675   0.24614128 
    2820   -295328.11    900.64285  0.065420256  0.071946005  0.072755116   0.21012138  0.082571262  0.078566463   0.08513321   0.24627094 
    2830   -295334.83          900  0.065325144  0.071863794  0.072520448   0.20970939  0.082079434  0.079082652  0.085243572   0.24640566 
    2840   -295360.66          900  0.065266471  0.071802324  0.072296799   0.20936559  0.081550662  0.079580614   0.08541469   0.24654597 
    2850   -295380.19          900  0.065246391   0.07176168  0.072105058   0.20911313  0.080994233  0.080045764  0.085659355   0.24669935 
    2860   -295384.36       900.57  0.065261396  0.071740531  0.071960146   0.20896207   0.08043626  0.080459337  0.085979166   0.24687476 
    2870   -295390.93          900   0.06531053  0.071742958  0.071837677   0.20889116  0.079903891  0.080815889  0.086354675   0.24707445 
    2880   -295398.19    900.97838  0.065395873   0.07177013   0.07176668   0.20893268  0.079418412  0.081108381  0.086760953   0.24728775 
    2890    -295396.4    900.77361  0.065519978  0.071822681   0.07169725   0.20903991  0.078981633  0.081330197  0.087174318   0.24748615 
    2900   -295384.01    899.18238  0.065684964    0.0719012  0.071709147   0.20929531  0.078586874  0.081480917  0.087566853   0.24763464 
    2910   -295374.59          900  0.065886115  0.072005854  0.071695981   0.20958795  0.078228947  0.081566624  0.087920781   0.24771635 
    2920    -295370.3    899.43685  0.066112126  0.072138063  0.071711479   0.20996167  0.077901116  0.081606686  0.088226682   0.24773448 
    2930   -295374.85    900.01473  0.066351751  0.072298713  0.071857136    0.2105076  0.077593424  0.081626327  0.088477172   0.24769692 
    2940   -295386.67          900  0.066599844  0.072479074  0.071931881    0.2110108  0.077307287  0.081616615  0.088663784   0.24758769 
    2950   -295404.11          900  0.066851984  0.072671699  0.072042934   0.21156662  0.077048362  0.081565786  0.088775034   0.24738918 
    2960    -295423.2          900  0.067102581  0.072878997  0.072297684   0.21227926  0.076814155  0.081481995  0.088809177   0.24710533 
    2970   -295438.79          900  0.067346993  0.073101888  0.072481141   0.21293002  0.076603613  0.081379994  0.088774011   0.24675762 
    2980   -295454.35          900  0.067580802  0.073335508  0.072695589    0.2136119   0.07643389  0.081252934  0.088680937   0.24636776 
    2990   -295470.01          900  0.067799763  0.073575716  0.072855612   0.21423109  0.076330374  0.081078022  0.088545147   0.24595354 
    3000   -295479.42          900  0.068004359  0.073821084  0.073117363   0.21494281  0.076311191  0.080839212  0.088374634   0.24552504 
    3010   -295487.42          900  0.068194892  0.074075835  0.073306593   0.21557732  0.076391428  0.080540988  0.088170852   0.24510327 
    3020   -295489.87    900.28657  0.068368857  0.074337537  0.073592578   0.21629897  0.076590851  0.080189115  0.087936009   0.24471597 
    3030   -295480.41    899.03935  0.068522555  0.074600233  0.073884678   0.21700747  0.076934904  0.079791726   0.08767325   0.24439988 
    3040   -295464.48          900  0.068650491  0.074858307  0.074121347   0.21763015  0.077437217  0.079367901  0.087387562   0.24419268 
    3050   -295447.98          900  0.068750345  0.075109937  0.074423813   0.21828409  0.078090275  0.078941153  0.087084239   0.24411567 
    3060   -295437.06          900  0.068822346  0.075356073  0.074729924   0.21890834  0.078875448  0.078527131  0.086769297   0.24417188 
    3070   -295424.44          900  0.068867471  0.075595041  0.075012588    0.2194751  0.079773269   0.07813102  0.086445995   0.24435028 
    3080   -295408.84          900  0.068887747  0.075823744  0.075335264   0.22004676  0.080762175  0.077739552  0.086107545   0.24460927 
    3090   -295400.95          900   0.06888632  0.076046837   0.07566088   0.22059404  0.081809644  0.077351846  0.085749588   0.24491108 
    3100   -295386.33          900  0.068862485  0.076269861  0.075993361   0.22112571  0.082889867  0.076978461  0.085371856   0.24524018 
    3110   -295376.02          900  0.068813421  0.076496209  0.076326082   0.22163571  0.083982876  0.076628871  0.084979279   0.24559103 
    3120   -295367.29          900  0.068738291  0.076727131  0.076658655   0.22212408  0.085052987  0.076313769  0.084578566   0.24594532 
    3130   -295354.03          900  0.068639109  0.076962303  0.076991232   0.22259264  0.086060309  0.076043711  0.084176969   0.24628099 
    3140   -295334.31          900  0.068520691  0.077196914  0.077329986   0.22304759  0.086965547  0.075822861  0.083787124   0.24657553 
    3150   -295318.62          900  0.068386395  0.077431904  0.077687127   0.22350543  0.087739421  0.075655636  0.083414932   0.24680999 
    3160   -295319.18    900.04025  0.068243327  0.077666967  0.078034407    0.2239447  0.088359726  0.075558736  0.083056728   0.24697519 
    3170   -295336.92          900  0.068102695  0.077897986  0.078385125   0.22438581   0.08880961  0.075555721  0.082708194   0.24707352 
    3180   -295360.85          900  0.067975432  0.078122551  0.078740201   0.22483818  0.089092334  0.075656771  0.082374708   0.24712381 
    3190   -295378.41          900  0.067864532  0.078348215  0.079082785   0.22529553  0.089223908  0.075867524  0.082053457   0.24714489 
    3200      -295391          900   0.06777194  0.078581952  0.079409929   0.22576382  0.089229444  0.076195123  0.081742315   0.24716688 
    3210   -295397.07    900.78718  0.067698802  0.078825532  0.079718487   0.22624282  0.089139786  0.076644494  0.081441145   0.24722542 
    3220   -295404.27          900  0.067641894  0.079078552  0.080006273   0.22672672  0.088976929  0.077209526  0.081158539     0.247345 
    3230   -295409.99    900.73157  0.067596909  0.079345484  0.080284476   0.22722687   0.08875228  0.077865121  0.080908898    0.2475263 
    3240   -295406.06     900.2349  0.067563688  0.079627685  0.080547474   0.22773885  0.088475187  0.078574431  0.080699944   0.24774956 
    3250   -295400.75    899.54261  0.067546057  0.079913655  0.080851316   0.22831103  0.088158531  0.079310609   0.08054508   0.24801422 
    3260   -295394.18          900  0.067546998  0.080184808  0.081126246   0.22885805  0.087815604  0.080059513  0.080468078    0.2483432 
    3270   -295375.86          900  0.067568068  0.080431224  0.081404697   0.22940399  0.087445592  0.080811002  0.080477534   0.24873413 
    3280    -295355.3          900  0.067611804  0.080652289  0.081796486   0.23006058   0.08704178  0.081562179  0.080570985   0.24917494 
    3290    -295329.2          900  0.067680984  0.080850243  0.082071945   0.23060317  0.086599327  0.082320846  0.080744718   0.24966489 
    3300    -295303.3          900   0.06777691  0.081028204  0.082453834   0.23125895  0.086118945  0.083101818  0.080996732    0.2502175 
    3310   -295277.78          900   0.06789482  0.081190862  0.082688862   0.23177454  0.085612303  0.083906918  0.081327165   0.25084639 
    3320   -295250.82          900   0.06802699  0.081343922  0.082887662   0.23225857  0.085096852  0.084728511  0.081737263   0.25156263 
    3330   -295225.18          900  0.068172767  0.081489083   0.08319748   0.23285933  0.084585311  0.085558309  0.082228771   0.25237239 
    3340   -295203.65          900  0.068332102  0.081629699   0.08333808   0.23329988  0.084091078  0.086377525  0.082805858   0.25327446 
    3350    -295195.7          900  0.068505872  0.081768174  0.083482715   0.23375676  0.083632495  0.087159034  0.083468791   0.25426032 
    3360   -295199.73    900.50106  0.068694487  0.081908177  0.083585684   0.23418835  0.083223463  0.087878457  0.084211648   0.25531357 
    3370   -295200.38    900.59124  0.068898377  0.082052769  0.083680304   0.23463145  0.082867577  0.088513616  0.085026208    0.2564074 
    3380    -295203.9          900  0.069121129  0.082203361  0.083586498   0.23491099  0.082551035  0.089053129  0.085896579   0.25750074 
    3390   -295212.01          900  0.069367291  0.082357222  0.083664611   0.23538912  0.082251665   0.08950011  0.086799232   0.25855101 
    3400   -295218.82    900.88709  0.069637999  0.082507173  0.083737185   0.23588236  0.081961955   0.08986174  0.087712982   0.25953668 
    3410   -295221.61          900  0.069932314  0.082650222  0.083557517   0.23614005  0.081691176  0.090133788  0.088618546   0.26044351 
    3420   -295220.34    899.84634  0.070247695  0.082788705  0.083632557   0.23666896  0.081454138  0.090323594   0.08949847    0.2612762 
    3430   -295215.55    899.23296  0.070579269  0.082936015  0.083532723   0.23704801  0.081257072  0.090466179  0.090337595   0.26206085 
    3440   -295205.77          900  0.070919127  0.083096621   0.08363337   0.23764912  0.081116023  0.090596863  0.091114393   0.26282728 
    3450   -295193.16          900  0.071264292  0.083271096  0.083770233   0.23830562  0.081046833  0.090743946  0.091802356   0.26359314 
    3460   -295184.77          900    0.0716145   0.08345833  0.083823109   0.23889594  0.081062795  0.090925912  0.092380476   0.26436918 
    3470    -295185.5    900.12673  0.071969715  0.083657705  0.084052126   0.23967955  0.081171629  0.091147475   0.09283826   0.26515736 
    3480   -295194.42          900  0.072329977  0.083871733  0.084260563   0.24046227  0.081374772  0.091401149  0.093172005   0.26594793 
    3490   -295193.72     899.9294  0.072694447  0.084097884  0.084575579   0.24136791   0.08167327  0.091676074  0.093387243   0.26673659 
    3500   -295179.79          900  0.073061741   0.08432664  0.084919999   0.24230838  0.082068393  0.091952597   0.09349135   0.26751234 
    3510   -295173.08    899.13885  0.073434162  0.084553778  0.085250932   0.24323887  0.082549469  0.092213496   0.09348289   0.26824586 
    3520   -295173.83      899.245  0.073811135  0.084779906  0.085631698   0.24422274   0.08309964   0.09245667  0.093365497   0.26892181 
    3530   -295187.92          900  0.074186351  0.085002597   0.08600235    0.2451913  0.083709452  0.092686526   0.09315258   0.26954856 
    3540   -295205.43          900  0.074553981  0.085220539  0.086404714   0.24617923  0.084362825  0.092901226  0.092854586   0.27011864 
    3550   -295224.17          900  0.074911593   0.08543779  0.086814066   0.24716345  0.085037881  0.093091321  0.092481741   0.27061094 
    3560   -295239.14          900  0.075258286  0.085658592   0.08722534   0.24814222  0.085719974  0.093247723  0.092052628   0.27102033 
    3570   -295243.85    900.61347  0.075591262   0.08588112  0.087633829   0.24910621   0.08640561  0.093366972  0.091586982   0.27135956 
    3580   -295248.22          900  0.075909369  0.086104644   0.08807527   0.25008928  0.087089205   0.09344179   0.09111057   0.27164157 
    3590   -295254.14    900.76091  0.076211422  0.086334191  0.088459525   0.25100514   0.08776264  0.093467801  0.090654325   0.27188477 
    3600   -295259.23          900  0.076493856  0.086578668   0.08881509   0.25188761  0.088423892   0.09345835  0.090239976   0.27212222 
    3610   -295270.93          900    0.0767477  0.086841134  0.089252251   0.25284109  0.089074584  0.093434089  0.089877871   0.27238654 
    3620   -295289.17          900  0.076967986  0.087117419  0.089537138   0.25362254   0.08971404  0.093404856  0.089570761   0.27268966 
    3630   -295312.16          900  0.077160257  0.087405908  0.089783246   0.25434941  0.090344906  0.093380186  0.089321291   0.27304638 
    3640    -295334.2          900  0.077334377  0.087707496  0.089888003   0.25492988  0.090965756   0.09336631  0.089142001   0.27347407 
    3650   -295343.58          900   0.07750027   0.08802494  0.090051796   0.25557701  0.091562025  0.093360409  0.089047907   0.27397034 
    3660   -295349.87    900.77958  0.077664674  0.088360877  0.090177425   0.25620297  0.092114788  0.093354074  0.089040973   0.27450984 
    3670    -295361.7          900  0.077831373   0.08871698  0.090039549    0.2565879  0.092613879  0.093350995   0.08911426   0.27507913 
    3680    -295379.2          900  0.078003275   0.08909408  0.090097403   0.25719476  0.093048929  0.093359723  0.089255192   0.27566384 
    3690   -295399.45          900  0.078182182  0.089490829  0.089950876   0.25762389  0.093413433  0.093389554   0.08944575   0.27624874 
    3700   -295419.45          900  0.078367412  0.089904285  0.089938799    0.2582105  0.093708756  0.093450463  0.089665098   0.27682432 
    3710   -295431.65          900  0.078555426  0.090332874  0.089885905   0.25877421  0.093927814  0.093545892  0.089890267   0.27736397 
    3720   -295432.97    900.19007  0.078743106  0.090774043  0.089778318   0.25929547  0.094061423  0.093669667  0.090107747   0.27783884 
    3730   -295426.46    899.35513  0.078930092  0.091222591  0.089665646   0.25981833  0.094110972   0.09381386  0.090316436   0.27824127 
    3740   -295412.46          900  0.079118471  0.091672484  0.089738182   0.26052914  0.094087466  0.093964005  0.090513859   0.27856533 
    3750   -295395.82          900  0.079320314  0.092118316  0.089593476   0.26103211  0.094003097  0.094105567  0.090686491   0.27879515 
    3760    -295374.7          900  0.079545284  0.092554131  0.089430464   0.26152988  0.093878591  0.094229463  0.090824258   0.27893231 
    3770   -295352.64          900  0.079794163  0.092983715  0.089629089   0.26240697  0.093731061  0.094331175  0.090921833   0.27898407 
    3780   -295335.69          900  0.080062283  0.093413505  0.089451201   0.26292699  0.093578742  0.094411729  0.090976011   0.27896648 
    3790   -295315.36          900  0.080342173  0.093845359  0.089270477   0.26345801  0.093439349  0.094478044  0.090985708    0.2789031 
    3800   -295288.32          900  0.080626028   0.09427675  0.089509563   0.26441234  0.093329024  0.094539491   0.09095197   0.27882048 
    3810   -295250.91          900  0.080910194  0.094704112  0.089289843   0.26490415  0.093259833  0.094595486  0.090884549   0.27873987 
    3820   -295216.84          900  0.081192234  0.095124447  0.089448603   0.26576528  0.093235419   0.09463918  0.090793606    0.2786682 
    3830   -295192.28          900  0.081467099  0.095537504   0.08915535   0.26615995  0.093250771  0.094662461  0.090684629   0.27859786 
    3840   -295175.97          900  0.081729748  0.095942412  0.088834521   0.26650668  0.093304769  0.094657015  0.090564237   0.27852602 
    3850    -295162.7          900  0.081976694  0.096336672  0.088816832    0.2671302  0.093391917  0.094603501  0.090454978    0.2784504 
    3860    -295154.8          900  0.082202909  0.096718347  0.088466946    0.2673882  0.093504933  0.094499605  0.090375663    0.2783802 
    3870   -295149.53    899.31155  0.082402744  0.097086296  0.088115733   0.26760477  0.093632788  0.094348631  0.090333077    0.2783145 
    3880   -295146.37          900  0.082570416  0.097435893  0.087988111   0.26799442  0.093766158  0.094145931  0.090340364   0.27825245 
    3890   -295158.13          900  0.082703183    0.0977592   0.08765983   0.26812221  0.093900006  0.093883557  0.090416544   0.27820011 
    3900   -295178.56          900  0.082804535  0.098048818  0.087507969   0.26836132   0.09402515  0.093554244  0.090572772   0.27815217 
    3910   -295193.41          900  0.082877763  0.098304087  0.087210184   0.26839204  0.094139209  0.093158935  0.090813547   0.27811169 
    3920   -295213.09          900  0.082921658    0.0985268  0.086927836   0.26837629  0.094254327  0.092710922  0.091129579   0.27809483 
    3930   -295241.04          900   0.08294149  0.098714499  0.086763714    0.2684197  0.094379856  0.092223666  0.091493195   0.27809672 
    3940   -295270.04          900  0.082936389  0.098862704  0.086488577   0.26828767  0.094522906  0.091709909  0.091872299   0.27810511 
    3950   -295288.03          900  0.082903647  0.098968536  0.086268017    0.2681402  0.094685153  0.091179386  0.092235815   0.27810035 
    3960   -295296.49          900  0.082843604   0.09903202  0.085984607   0.26786023   0.09487174  0.090642799  0.092552406   0.27806694 
    3970   -295302.94    900.82775  0.082755294  0.099059115  0.085706194    0.2675206  0.095077325  0.090114934  0.092796024   0.27798828 
    3980   -295303.18    900.88749  0.082637152  0.099055843  0.085453636   0.26714663  0.095290275  0.089603947  0.092953622   0.27784784 
    3990   -295300.53    900.50651  0.082490732  0.099028506  0.085207742   0.26672698  0.095507104  0.089116744  0.093016284   0.27764013 
    4000   -295297.76    900.12483  0.082321474  0.098986137  0.084940035   0.26624765  0.095727513  0.088661456  0.092978662   0.27736763 
    4010   -295301.79    900.61212  0.082137677  0.098938356  0.084754074   0.26583011  0.095956723  0.088243083  0.092838971   0.27703878 
    4020   -295303.78    900.84228  0.081945328  0.098886822  0.084606333   0.26543848    0.0962097  0.087860466  0.092592445   0.27666261 
    4030   -295297.08    899.95389  0.081749841  0.098827237  0.084347578   0.26492466  0.096507498  0.087507339  0.092238554   0.27625339 
    4040    -295276.1          900  0.081561958  0.098754429  0.084280645   0.26459703  0.096866479   0.08718005  0.091779636   0.27582616 
    4050   -295258.09          900  0.081394575  0.098666647  0.084235486   0.26429671  0.097294974   0.08688167   0.09120082   0.27537746 
    4060   -295248.44          900  0.081255004  0.098567506  0.083998899   0.26382141  0.097797869  0.086621473  0.090506921   0.27492626 
    4070   -295249.02    900.07241  0.081146985  0.098458361  0.083973976   0.26357932  0.098370801  0.086405568  0.089722776   0.27449915 
    4080   -295262.08          900  0.081070459  0.098338415  0.083944538   0.26335341  0.098993986  0.086231135  0.088883253   0.27410837 
    4090   -295296.24          900  0.081021757  0.098208408  0.083682798   0.26291296   0.09964866  0.086105801  0.088014841    0.2737693 
    4100   -295344.93          900  0.080998294  0.098071491  0.083626682   0.26269647   0.10031556  0.086035834  0.087142637   0.27349403 
    4110   -295385.26          900  0.080999998  0.097926604  0.083374804   0.26230141   0.10097586   0.08602481  0.086290367   0.27329104 
    4120   -295407.64          900  0.081022953  0.097775968  0.083283396   0.26208232   0.10160825  0.086075573  0.085484958   0.27316878 
    4130   -295417.09          900  0.081057184  0.097631555  0.083185132   0.26187387   0.10219327  0.086190926  0.084747959   0.27313216 
    4140   -295412.16    899.37286  0.081096947  0.097499053  0.082996505    0.2615925   0.10271588  0.086358723  0.084087772   0.27316237 
    4150      -295409          900  0.081143581  0.097373744  0.082913256   0.26143058   0.10316703  0.086549402  0.083506505   0.27322294 
    4160   -295415.33    900.85116  0.081200953  0.097253566  0.082827629   0.26128215   0.10353977  0.086736941  0.082994974   0.27327168 
    4170   -295413.26    900.60298  0.081271376  0.097140429  0.082770911   0.26118272   0.10382731  0.086901406  0.082542557   0.27327127 
    4180   -295391.84          900   0.08135543  0.097036948  0.082729251   0.26112163   0.10402668  0.087026355  0.082140864    0.2731939 
    4190   -295364.64          900  0.081454525  0.096945052  0.082757848   0.26115742   0.10414333  0.087106715  0.081777157    0.2730272 
    4200   -295339.87          900  0.081567114  0.096862909  0.082744603   0.26117463   0.10418276  0.087142949  0.081443809   0.27276952 
    4210   -295318.68          900  0.081688549   0.09678569   0.08285926    0.2613335   0.10414607  0.087140383  0.081136158   0.27242261 
    4220   -295303.81          900   0.08181897  0.096708326   0.08287606   0.26140336   0.10403734   0.08710869  0.080862546   0.27200858 
    4230   -295295.53          900   0.08196435    0.0966245  0.083046573   0.26163542   0.10386223  0.087056927  0.080646643    0.2715658 
    4240   -295295.04    899.93532  0.082130567  0.096526921   0.08309457   0.26175206   0.10363033  0.086986476  0.080506953   0.27112376 
    4250   -295299.52    900.49662   0.08232075  0.096413714  0.083162472   0.26189694   0.10335761  0.086899265  0.080447834   0.27070471 
    4260   -295300.92    900.69076  0.082534576  0.096294273  0.083264872   0.26209372    0.1030597  0.086804572   0.08047082    0.2703351 
    4270   -295305.86          900  0.082771825  0.096171845  0.083355843   0.26229951   0.10274413  0.086702636  0.080590191   0.27003696 
    4280    -295309.9    900.53455  0.083033663  0.096037011  0.083470479   0.26254115   0.10240903  0.086585562  0.080816962   0.26981156 
    4290   -295315.03          900  0.083316526  0.095882516  0.083569682   0.26276872   0.10204795  0.086454621  0.081159528    0.2696621 
    4300   -295326.95          900  0.083614415  0.095705311  0.083678909   0.26299864   0.10165757  0.086320689  0.081615947   0.26959421 
    4310   -295338.73          900  0.083923479   0.09550529  0.083805364   0.26323413   0.10124046   0.08619558  0.082176956     0.269613 
    4320    -295349.1          900  0.084241116  0.095283303  0.083951398   0.26347582   0.10080651  0.086090403  0.082836034   0.26973295 
    4330   -295363.25          900  0.084565357  0.095039949  0.084037825   0.26364313    0.1003737   0.08602223  0.083587699   0.26998363 
    4340   -295370.51    900.93681  0.084895071  0.094777081  0.084233523   0.26390567  0.099954636   0.08599814  0.084427349   0.27038013 
    4350   -295374.75          900  0.085229979  0.094500707  0.084449869   0.26418055  0.099566353  0.086008933  0.085345549   0.27092083 
    4360   -295390.87          900  0.085567367  0.094217086   0.08452168   0.26430613  0.099231912  0.086044551  0.086317694   0.27159416 
    4370   -295416.48          900  0.085907407  0.093927846  0.084762806   0.26459806  0.098967863  0.086106043  0.087321756   0.27239566 
    4380   -295438.06          900  0.086255051  0.093631196  0.084878485   0.26476473  0.098779396  0.086198058  0.088353334   0.27333079 
    4390   -295442.65    900.59543  0.086609629   0.09332423  0.085121916   0.26505578  0.098671177   0.08631518  0.089408421   0.27439478 
    4400    -295440.7    900.32742  0.086967279  0.093003447  0.085303487   0.26527421  0.098637181  0.086457299  0.090488024    0.2755825 
    4410   -295430.58          900  0.087322156  0.092669363  0.085526023   0.26551754  0.098652933  0.086642411  0.091594909   0.27689025 
    4420   -295419.39          900  0.087669752  0.092324431  0.085735483   0.26572967  0.098693178  0.086882092  0.092718289   0.27829356 
    4430   -295413.54    899.21919  0.088008436  0.091973189  0.085993943   0.26597557  0.098743605  0.087178497  0.093844258   0.27976636 
    4440   -295412.27    899.01208  0.088337674  0.091627869  0.086192374   0.26615792  0.098793289  0.087544891  0.094950543   0.28128872 
    4450   -295410.65          900  0.088659139  0.091303491  0.086603017   0.26656565  0.098834018  0.088000196  0.096012779   0.28284699 
    4460   -295408.71    899.76232  0.088974873  0.091012302  0.086789449   0.26677662  0.098867817  0.088535976  0.097010561   0.28441435 
    4470   -295399.06          900  0.089279263   0.09076476  0.086975582   0.26701961  0.098902343  0.089129468  0.097925263   0.28595707 
    4480    -295390.2          900  0.089571778   0.09056536  0.087536757   0.26767389  0.098936228  0.089761884  0.098739541   0.28743765 
    4490   -295370.43          900  0.089852105  0.090416301  0.087721748   0.26799015  0.098971697  0.090405275   0.09943716   0.28881413 
    4500   -295349.65          900  0.090120237  0.090313173  0.087901654   0.26833506   0.09901711  0.091031418   0.10000642   0.29005495 
    4510    -295327.9          900  0.090372932  0.090245023  0.088477066   0.26909502  0.099075821  0.091622486   0.10044628   0.29114459 
    4520   -295307.91          900  0.090602365  0.090205248  0.088653484    0.2694611  0.099150491   0.09216671   0.10075916   0.29207636 
    4530   -295288.99          900  0.090801143  0.090189905  0.089212001   0.27020305  0.099235387  0.092663071   0.10094574    0.2928442 
    4540   -295275.51          900  0.090967553  0.090194531  0.089395178   0.27055726  0.099322056  0.093108872   0.10100607     0.293437 
    4550   -295261.46          900  0.091103967  0.090209623  0.089890053   0.27120364   0.09941465  0.093494847   0.10095048   0.29385997 
    4560   -295251.17          900  0.091214332  0.090227649  0.090087191   0.27152917  0.099517934  0.093826289   0.10079117   0.29413539 
    4570   -295242.05          900  0.091302486  0.090243314  0.090289434   0.27183523  0.099634279  0.094108883   0.10053254   0.29427571 
    4580   -295233.02          900  0.091372026  0.090252093   0.09070165   0.27232577  0.099764093  0.094342899   0.10017097   0.29427796 
    4590   -295220.65          900  0.091425096  0.090254242  0.090904069   0.27258341  0.099899643   0.09452955  0.099695609    0.2941248 
    4600   -295207.15          900  0.091463034  0.090257099  0.091217166    0.2729373   0.10003214  0.094665103  0.099104749   0.29380199 
    4610   -295194.52          900  0.091488766  0.090263583  0.091418172   0.27317052   0.10016045  0.094738637  0.098410851   0.29330994 
    4620   -295181.71          900  0.091504939  0.090271286  0.091627501   0.27340373   0.10028576  0.094738662  0.097643079    0.2926675 
    4630   -295172.38          900  0.091514707  0.090278743  0.091834941   0.27362839   0.10039719   0.09466789  0.096827937   0.29189302 
    4640   -295166.66    899.28756  0.091519825  0.090282612  0.092060044   0.27386248   0.10047975  0.094530117  0.095981979   0.29099185 
    4650   -295165.23    899.13912  0.091520715   0.09028108  0.092167438   0.27396923   0.10051776  0.094330516  0.095121694   0.28996997 
    4660   -295162.34          900  0.091518257  0.090283038  0.092388903    0.2741902   0.10048864  0.094086514  0.094258648    0.2888338 
    4670   -295152.61          900  0.091516843  0.090296581  0.092593786   0.27440721   0.10037756  0.093816019  0.093394468   0.28758804 
    4680   -295140.07          900  0.091523615  0.090322528  0.092556644   0.27440279   0.10019302  0.093543661   0.09253256   0.28626924 
    4690   -295126.11          900  0.091543876  0.090361938  0.092720817   0.27462663  0.099953372  0.093294247  0.091679972   0.28492759 
    4700   -295129.42    900.45673  0.091580439   0.09041476  0.092560425   0.27455562  0.099667414  0.093072058  0.090848629    0.2835881 
    4710   -295153.02          900  0.091634884  0.090479891  0.092665875   0.27478065   0.09934325  0.092880628  0.090052226    0.2822761 
    4720   -295181.61          900  0.091706645  0.090553258  0.092733395    0.2749933   0.09899275  0.092721447  0.089303594   0.28101779 
    4730   -295209.51          900  0.091794312  0.090624685  0.092488057   0.27490705  0.098626203   0.09258868  0.088614274   0.27982916 
    4740   -295221.44          900  0.091895308  0.090683575  0.092496603   0.27507549  0.098247497  0.092471617  0.088005874   0.27872499 
    4750   -295231.73          900  0.092005066  0.090727873  0.092247796   0.27498073  0.097852036  0.092366799  0.087489166     0.277708 
    4760   -295238.56    900.91389  0.092118511  0.090758227  0.092225282   0.27510202  0.097427252  0.092276319  0.087056602   0.27676017 
    4770   -295240.52          900  0.092234565  0.090781602  0.092186811   0.27520298  0.096960687  0.092207416   0.08668974   0.27585784 
    4780   -295242.95    900.29796  0.092351332  0.090806661  0.091986619   0.27514461  0.096459616  0.092168256   0.08637359   0.27500146 
    4790   -295251.33          900  0.092463206  0.090832242  0.091926192   0.27522164   0.09594103  0.092164151  0.086098153   0.27420333 
    4800   -295258.18    900.84888  0.092567248  0.090854877  0.091788269   0.27521039  0.095422888  0.092197435  0.085841316   0.27346164 
    4810    -295261.2          900  0.092662266  0.090870874  0.091714731   0.27524787  0.094923577  0.092263965   0.08558475   0.27277229 
    4820   -295273.64          900  0.092752705  0.090878548  0.091630886   0.27526214  0.094457773   0.09235433  0.085324156   0.27213626 
    4830   -295282.63          900  0.092843471  0.090886022  0.091521633   0.27525113  0.094031265  0.092463924  0.085066349   0.27156154 
    4840   -295291.37          900  0.092935206  0.090896293  0.091416385   0.27524788  0.093652541  0.092579618  0.084821417   0.27105358 
    4850   -295299.19          900  0.093029312  0.090913142   0.09129748   0.27523993   0.09332999  0.092682117  0.084601286   0.27061339 
    4860   -295296.28    899.58739  0.093127291  0.090942614  0.091161035   0.27523094  0.093069593  0.092754807  0.084427755   0.27025215 
    4870   -295289.93          900  0.093228571   0.09098827  0.091005382   0.27522222  0.092871274  0.092791468   0.08431819   0.26998093 
    4880   -295300.71          900  0.093333881  0.091046265  0.090827516   0.27520766  0.092736486  0.092789854  0.084287338   0.26981368 
    4890   -295314.82          900   0.09344413  0.091112681  0.090641102   0.27519791  0.092672455  0.092750901  0.084356926   0.26978028 
    4900   -295323.01          900  0.093557924  0.091186432  0.090420702   0.27516506   0.09268191  0.092681198  0.084540389    0.2699035 
    4910   -295327.33    900.56843  0.093673642  0.091263731  0.090195654   0.27513303  0.092766085  0.092592108  0.084837651   0.27019584 
    4920   -295330.01    900.90497  0.093790536  0.091334874  0.089961089    0.2750865  0.092928387   0.09249466  0.085248417   0.27067146 
    4930   -295336.93          900  0.093906005  0.091400469  0.089695542   0.27500202  0.093159601  0.092404823  0.085761593   0.27132602 
    4940      -295349          900  0.094018626  0.091464581  0.089445365   0.27492857  0.093451473  0.092331406   0.08634595   0.27212883 
    4950   -295362.98          900  0.094127491  0.091529537  0.089191437   0.27484846  0.093798309  0.092277188  0.086975672   0.27305117 
    4960   -295379.62          900  0.094233143  0.091598704   0.08894781   0.27477966  0.094195166  0.092238682  0.087628913   0.27406276 
    4970   -295391.94          900  0.094335273  0.091677798  0.088713051   0.27472612  0.094628104  0.092219222  0.088297792   0.27514512 
    4980   -295398.79    900.91828  0.094431972  0.091769946  0.088511935   0.27471385   0.09508636  0.092224371  0.088979084   0.27628981 
    4990   -295406.11          900  0.094520909  0.091871693  0.088287709   0.27468031  0.095561843  0.092262135   0.08966075   0.27748473 
    5000   -295417.11          900  0.094598827  0.091978321  0.088156435   0.27473358  0.096043862  0.092342678  0.090328868   0.27871541 
    5010    -295430.1          900  0.094665052  0.092085004  0.087954541    0.2747046  0.096527619  0.092471742  0.090969605   0.27996897 
    5020   -295442.19          900  0.094723986  0.092187564  0.087764998   0.27467655  0.097014065  0.092655381  0.091573176   0.28124262 
    5030   -295445.95    900.48091  0.094777871  0.092283713  0.087737925   0.27479951  0.097506832  0.092895602  0.092133506   0.28253594 
    5040   -295429.25          900   0.09482176  0.092372427  0.087566264   0.27476045  0.098012137   0.09317308  0.092650855   0.28383607 
    5050   -295403.52          900  0.094848193  0.092447106  0.087414178   0.27470948  0.098533966  0.093463198  0.093127938    0.2851251 
    5060   -295383.85          900  0.094854051  0.092505859  0.087469989    0.2748299  0.099072243  0.093745301  0.093559054    0.2863766 
    5070   -295362.78          900   0.09483995  0.092557157  0.087368267   0.27476537  0.099621598  0.093999874   0.09393557   0.28755704 
    5080   -295337.14          900  0.094809252  0.092609316  0.087473179   0.27489175   0.10017916   0.09420941  0.094254472   0.28864304 
    5090   -295313.89          900  0.094770911  0.092661619  0.087429036   0.27486157   0.10074256  0.094371555  0.094517077   0.28963119 
    5100   -295300.84          900  0.094736537  0.092707715  0.087553466   0.27499772    0.1013073  0.094506454  0.094722093   0.29053585 
    5110   -295287.18          900  0.094712053  0.092745051  0.087574564   0.27503167   0.10186372  0.094635032  0.094869946    0.2913687 
    5120   -295259.47          900  0.094698706  0.092784508  0.087608423   0.27509164   0.10239221   0.09479044  0.094962963   0.29214562 
    5130   -295229.49          900  0.094699731  0.092829003  0.087744599   0.27527333   0.10288478   0.09501419  0.095001936   0.29290091 
    5140   -295195.16          900  0.094719835  0.092871577  0.087804662   0.27539607   0.10334107  0.095332329  0.094986246   0.29365964 
    5150   -295160.92          900  0.094760847  0.092909592  0.087928323   0.27559876   0.10376062  0.095748652  0.094912144   0.29442142 
    5160   -295121.83          900  0.094822797  0.092935014  0.088031937   0.27578975   0.10414869  0.096259555  0.094779411   0.29518765 
    5170   -295088.35          900  0.094905245  0.092938932  0.088161124    0.2760053   0.10450936  0.096854489  0.094594849   0.29595869 
    5180   -295064.86          900  0.095004972  0.092920377  0.088261237   0.27618659   0.10484239  0.097507986  0.094370829   0.29672121 
    5190   -295056.04          900  0.095119289  0.092878372  0.088457099   0.27645476   0.10515494  0.098182886  0.094126002   0.29746383 
    5200   -295069.98          900  0.095246367  0.092813096  0.088693983   0.27675345   0.10544504  0.098849804  0.093872149   0.29816699 
    5210   -295098.37          900  0.095385739  0.092733685  0.088792238   0.27691166   0.10569733  0.099497755  0.093609956   0.29880504 
    5220    -295126.9          900  0.095539202  0.092645991  0.089091783   0.27727698   0.10590275   0.10011474  0.093339034   0.29935652 
    5230   -295161.78          900  0.095707048  0.092552983  0.089416635   0.27767667     0.106058   0.10068865  0.093061306   0.29980795 
    5240   -295200.66          900  0.095889802  0.092456596  0.089532836   0.27787923   0.10616037   0.10121131  0.092786349   0.30015803 
    5250    -295230.5          900  0.096089248  0.092355285   0.08989246   0.27833699   0.10620539   0.10167233  0.092526778    0.3004045 
    5260   -295256.59          900  0.096304603  0.092248124  0.090025149   0.27857788   0.10618645   0.10205404  0.092292264   0.30053276 
    5270   -295281.49          900  0.096526714  0.092147075  0.090406695   0.27908048   0.10608324   0.10233349  0.092082191   0.30049892 
    5280   -295301.94          900  0.096748337   0.09206071  0.090790826   0.27959987   0.10587097   0.10251931  0.091897456   0.30028773 
    5290   -295315.47          900  0.096966609   0.09199267  0.090960296   0.27991958   0.10553504   0.10262724  0.091746027   0.29990831 
    5300   -295328.39          900  0.097178924  0.091942454  0.091330508   0.28045189   0.10507112   0.10266627  0.091639682   0.29937707 
    5310   -295341.24          900  0.097382403  0.091909639  0.091688409   0.28098045   0.10448757   0.10264457  0.091586745   0.29871889 
    5320   -295352.31          900  0.097577846  0.091897129  0.091832649   0.28130762   0.10380334   0.10257605  0.091587355   0.29796674 
    5330   -295360.25          900  0.097774042  0.091906037  0.092162782   0.28184286   0.10303965   0.10249113   0.09163266   0.29716345 
    5340   -295358.68    899.79664  0.097979768  0.091938994  0.092478997   0.28239776   0.10221667   0.10242033  0.091709212   0.29634621 
    5350   -295353.88    899.18286  0.098193177  0.092001881   0.09260111   0.28279617   0.10134574   0.10237499  0.091804524   0.29552526 
    5360    -295344.7          900  0.098411679  0.092089399  0.092889354   0.28339043   0.10042624   0.10236309  0.091914747   0.29470408 
    5370   -295332.18          900  0.098631155  0.092197612  0.093029196   0.28385796  0.099451606   0.10239087  0.092035764   0.29387824 
    5380   -295329.34    899.62871   0.09884294  0.092326743  0.093312277   0.28448196  0.098423518   0.10244377  0.092163477   0.29303077 
    5390   -295331.36    899.88371  0.099039291  0.092471206  0.093596019   0.28510652  0.097353512   0.10249339  0.092299332   0.29214623 
    5400   -295330.57    899.79327   0.09922073   0.09262368  0.093751015   0.28559543  0.096266644   0.10249877  0.092438207   0.29120363 
    5410   -295337.68    900.69224  0.099395466  0.092782718  0.094015446   0.28619363  0.095193605   0.10242075   0.09256276   0.29017711 
    5420    -295351.4          900   0.09957015  0.092952747  0.094249824   0.28677272   0.09415733   0.10224331  0.092653862    0.2890545 
    5430   -295375.91          900  0.099746537  0.093137317  0.094522824   0.28740668  0.093177696   0.10196658  0.092700602   0.28784488 
    5440   -295407.08          900  0.099924739  0.093337664  0.094682802    0.2879452  0.092272991   0.10159847  0.092699464   0.28657093 
    5450   -295440.96          900    0.1001023  0.093551858  0.095023637    0.2886778   0.09146232   0.10115208  0.092648405    0.2852628 
    5460   -295470.51          900   0.10027691  0.093774307  0.095130047   0.28918127  0.090763402   0.10065629  0.092548754   0.28396844 
    5470   -295494.46          900   0.10045012  0.094001338  0.095225881   0.28967734  0.090190987   0.10015823  0.092412375   0.28276159 
    5480   -295512.57          900   0.10061853  0.094235392  0.095582788   0.29043671  0.089760764  0.099681392  0.092252872   0.28169503 
    5490   -295518.65    900.80288   0.10077971  0.094476941  0.095669538   0.29092619  0.089487488  0.099243879  0.092086756   0.28081812 
    5500   -295512.48    899.98599   0.10094009  0.094721456  0.095740493   0.29140204  0.089383721  0.098860641  0.091931826   0.28017619 
    5510    -295499.7          900   0.10110228  0.094968969  0.096094175   0.29216543  0.089456507  0.098538418  0.091809145   0.27980407 
    5520   -295480.58          900   0.10126332  0.095221547  0.096120158   0.29260502  0.089706633  0.098280511  0.091746691   0.27973384 
    5530   -295462.18          900   0.10141773  0.095480488  0.096452952   0.29335117  0.090129595  0.098096264  0.091767514   0.27999337 
    5540   -295442.27          900   0.10155866  0.095745602  0.096450921   0.29375518  0.090713463  0.098000068  0.091886518   0.28060005 
    5550   -295425.23          900   0.10167956  0.096017772  0.096445756   0.29414309  0.091439353  0.098005386    0.0921144   0.28155914 
    5560   -295406.99          900   0.10177557  0.096299544  0.096760082   0.29483519  0.092286893  0.098121254  0.092457241   0.28286539 
    5570   -295392.96          900   0.10184177  0.096596088  0.096755139     0.295193  0.093238097  0.098348283  0.092911754   0.28449813 
    5580   -295388.38    899.42106   0.10187476   0.09690649  0.096753247    0.2955345  0.094271683  0.098685627  0.093474684   0.28643199 
    5590   -295389.38    899.51656   0.10187552  0.097223074  0.097083012    0.2961816  0.095365067  0.099133454   0.09413693   0.28863545 
    5600   -295391.66    899.80576   0.10184705   0.09753758  0.097090962   0.29647559   0.09650058   0.09968065  0.094875264   0.29105649 
[...]
  248670   -295597.49          900   0.35818941   0.38864667   0.33151881    1.0783549   0.32000162   0.35119137   0.27619977   0.94739277 
  248680    -295615.7          900   0.35773314   0.38921875   0.33137034    1.0783222   0.32090765   0.35036662   0.27726992   0.94854419 
  248690   -295626.38          900   0.35727359   0.38980208   0.33122768    1.0783033   0.32168289   0.34959684   0.27851393   0.94979366 
  248700   -295631.06    900.62421   0.35682096   0.39038943    0.3309299    1.0781403   0.32234978   0.34890661   0.27991753   0.95117391 
  248710   -295628.78    900.34292    0.3563844   0.39097752   0.33080274    1.0781647   0.32293468   0.34832578   0.28145456   0.95271502 
  248720   -295612.48          900   0.35597323   0.39156917    0.3304029    1.0779453   0.32346069   0.34788738   0.28308622   0.95443429 
  248730    -295583.6          900   0.35559481   0.39216352    0.3302808    1.0780391   0.32395045   0.34760382   0.28477066   0.95632494 
  248740   -295552.41          900   0.35526459   0.39275322   0.33016315     1.078181   0.32443867   0.34747565   0.28646139   0.95837571 
  248750   -295516.88          900   0.35499925   0.39332991   0.32970393    1.0780331   0.32496125   0.34749381   0.28811088   0.96056594 
  248760   -295488.84          900   0.35480019   0.39389037   0.32961964    1.0783102   0.32553472   0.34765104   0.28966998   0.96285574 
  248770    -295460.4          900   0.35465513   0.39443061   0.32966277    1.0787485   0.32614789   0.34794771   0.29109753   0.96519313 
  248780   -295426.96          900   0.35454877    0.3949469   0.32966536     1.079161   0.32678143   0.34839009   0.29237658   0.96754809 
  248790   -295390.37          900   0.35447272   0.39544048   0.32972667    1.0796399   0.32741134   0.34897274    0.2934905   0.96987457 
  248800   -295357.67          900   0.35442383   0.39591892   0.33021283    1.0805556   0.32801394   0.34970287   0.29442976   0.97214656 
  248810   -295328.72          900   0.35440066   0.39639192   0.33038032    1.0811729   0.32857808   0.35061524   0.29520569   0.97439901 
  248820   -295297.39          900   0.35439851   0.39686552   0.33059311    1.0818571   0.32911621   0.35173973   0.29584028   0.97669621 
  248830   -295271.52          900   0.35440744   0.39734527   0.33112218    1.0828749   0.32964658   0.35307463   0.29636441   0.97908562 
  248840   -295252.43          900   0.35442705   0.39784073   0.33139547    1.0836633   0.33016759    0.3546095   0.29680227   0.98157936 
  248850   -295234.47          900   0.35446211   0.39836489   0.33168185    1.0845089   0.33065764   0.35632932   0.29716272   0.98414968 
  248860   -295236.24     900.2045    0.3545161    0.3989359   0.33212018    1.0855722    0.3311067   0.35820541   0.29744528    0.9867574 
  248870    -295246.5          900   0.35458677   0.39957016   0.33241574    1.0865727    0.3315182   0.36019746   0.29764804   0.98936369 
  248880   -295250.58    900.48427   0.35465591   0.40027053   0.33288814    1.0878146   0.33189279   0.36226301   0.29777262   0.99192842 
  248890   -295250.81    900.49132   0.35471493   0.40102947   0.33316155    1.0889059   0.33225679   0.36436939   0.29782917   0.99445535 
  248900   -295249.27    900.27252   0.35477264   0.40183623    0.3334241     1.090033    0.3326697   0.36649958    0.2978417   0.99701098 
  248910   -295239.64    899.04785   0.35483788   0.40268266   0.33387354    1.0913941   0.33318433   0.36864151   0.29783481   0.99966065 
  248920      -295220          900   0.35491788   0.40356097   0.33414955    1.0926284   0.33382603   0.37078482   0.29783468    1.0024455 
  248930   -295200.88          900   0.35501593   0.40446301    0.3345023    1.0939812   0.33459813   0.37289318   0.29787062    1.0053619 
  248940   -295193.45    899.06084   0.35512515   0.40538427   0.33481098    1.0953204    0.3355008   0.37492215   0.29795993    1.0083829 
  248950   -295199.79    899.88248   0.35523916   0.40632177   0.33512388    1.0966848   0.33653151    0.3768309   0.29811478    1.0114772 
  248960   -295209.88          900   0.35535856   0.40727649   0.33525384    1.0978889   0.33768775   0.37859622   0.29833979    1.0146238 
  248970   -295214.71    900.69423   0.35549098   0.40825425   0.33554108    1.0992863   0.33897784   0.38020575   0.29862844     1.017812 
  248980   -295214.89    900.75842   0.35564141   0.40925962   0.33536969    1.1002707   0.34040715   0.38164494    0.2989777    1.0210298 
  248990   -295211.93        900.4     0.355801   0.41029469   0.33559024    1.1016859   0.34195185   0.38289812   0.29939754    1.0242475 
  249000   -295213.57    900.59946    0.3559619   0.41135769   0.33576931    1.1030889   0.34353282   0.38395358   0.29988422    1.0273706 
  249010   -295228.58          900    0.3561272   0.41243934    0.3353042    1.1038707   0.34506099    0.3848103   0.30042503    1.0302963 
  249020   -295246.96          900   0.35631157   0.41352667   0.33536786    1.1052061   0.34650923    0.3854753    0.3010133    1.0329978 
  249030   -295259.36          900   0.35653983   0.41461041   0.33536762    1.1065179   0.34786699    0.3859565   0.30164353     1.035467 
  249040   -295271.71          900   0.35682412   0.41569251   0.33467314    1.1071898   0.34911803   0.38626598   0.30229916    1.0376832 
  249050   -295296.11          900   0.35716111   0.41677992   0.33455805    1.1084991   0.35024135   0.38641628   0.30296212    1.0396198 
  249060   -295337.03          900   0.35753487   0.41787834   0.33440735    1.1098206   0.35120767   0.38642076   0.30361943    1.0412479 
  249070   -295391.34          900   0.35793069   0.41898873   0.33453817    1.1114576   0.35201918   0.38629374   0.30426846    1.0425814 
  249080    -295445.9          900   0.35834078   0.42010582   0.33432471    1.1127713   0.35269642   0.38606106   0.30490485    1.0436623 
  249090   -295486.48          900   0.35874775   0.42122291   0.33417437     1.114145   0.35326285   0.38576092   0.30550303    1.0445268 
  249100   -295518.89          900   0.35913143   0.42233418   0.33392049    1.1153861   0.35373953   0.38542084   0.30603219    1.0451926 
  249110    -295557.1          900   0.35949159   0.42342204   0.33366844    1.1165821   0.35413379    0.3850429   0.30647016    1.0456469 
  249120      -295602          900   0.35981808   0.42446132   0.33339966    1.1176791   0.35442266   0.38460208   0.30681006    1.0458348 
  249130   -295643.03          900   0.36009981   0.42542846   0.33316379    1.1186921   0.35457328   0.38407977   0.30706227    1.0457153 
  249140   -295672.37          900   0.36033742   0.42631409   0.33294812    1.1195996    0.3545798    0.3834578   0.30724526    1.0452829 
  249150   -295694.93          900   0.36053149   0.42712803   0.33272275    1.1203823   0.35444712   0.38272528   0.30738037    1.0445528 
  249160   -295720.14          900   0.36068493   0.42788527   0.33257027    1.1211405   0.35417311   0.38187908   0.30748915    1.0435413 
  249170   -295745.11          900    0.3608101   0.42859361   0.33229792    1.1217016   0.35375354   0.38092043   0.30758656    1.0422605 
  249180   -295768.61          900   0.36091874   0.42925321   0.33218304     1.122355   0.35320562   0.37985482   0.30767599    1.0407364 
  249190   -295789.19          900   0.36101361   0.42985728   0.33207591    1.1229468   0.35255609    0.3787042   0.30774948    1.0390098 
  249200   -295805.48          900   0.36108619   0.43039534   0.33168468    1.1231662   0.35180784    0.3775076   0.30780604    1.0371215 
  249210   -295825.18          900   0.36112522   0.43085482   0.33159867    1.1235787   0.35096275   0.37630125   0.30785236    1.0351164 
  249220   -295849.02          900   0.36113017    0.4312228   0.33153746    1.1238904   0.35003583   0.37510232    0.3078867    1.0330249 
  249230   -295866.34          900   0.36110482   0.43148777   0.33112661    1.1237192   0.34905797   0.37391717   0.30789464    1.0308698 
  249240   -295878.53          900   0.36104478   0.43164212   0.33113566    1.1238226   0.34808319   0.37274807   0.30786207    1.0286933 
  249250   -295889.37          900   0.36095267   0.43168146   0.33080585      1.12344   0.34715325   0.37161006   0.30778101    1.0265443 
  249260   -295891.39    900.26035    0.3608406   0.43160223   0.33087197    1.1233148   0.34630337   0.37051996   0.30765259    1.0244759 
  249270   -295887.82    899.78816   0.36072194   0.43140514    0.3309606    1.1230877   0.34556241    0.3694896   0.30748518    1.0225372 
  249280    -295886.3    899.57247   0.36060673   0.43110062    0.3308338    1.1225412    0.3449457   0.36853475   0.30727702    1.0207575 
  249290   -295882.67    899.08662   0.36049449   0.43070525   0.33098108    1.1221808   0.34445983   0.36767149   0.30702234    1.0191537 
  249300   -295876.77          900   0.36037591   0.43023133    0.3311541    1.1217613    0.3441066   0.36690071   0.30673075    1.0177381 
  249310    -295869.3     899.0469   0.36023817   0.42968417   0.33123283    1.1211552   0.34388961   0.36620914   0.30642892    1.0165277 
  249320   -295850.15          900   0.36007369   0.42906407   0.33142735    1.1205651   0.34381955   0.36558322   0.30614153    1.0155443 
  249330    -295812.1          900    0.3598791   0.42836272   0.33162617     1.119868   0.34389419   0.36502494   0.30588426    1.0148034 
  249340   -295773.36          900   0.35965727   0.42757539   0.33167674    1.1189094    0.3440618   0.36456424   0.30565381    1.0142798 
  249350   -295741.07          900   0.35941646   0.42669928    0.3318804    1.1179961   0.34427225   0.36420842   0.30543395    1.0139146 
  249360   -295716.64          900   0.35916853   0.42573642   0.33209057    1.1169955   0.34452106   0.36394675   0.30521768    1.0136855 
  249370   -295698.38          900   0.35894618   0.42469172   0.33204654    1.1156844   0.34484531    0.3637691   0.30501067    1.0136251 
  249380   -295683.23          900   0.35877738   0.42357266   0.33224623    1.1145963   0.34526425   0.36366539   0.30482804    1.0137577 
  249390   -295672.87          900   0.35867223   0.42239297   0.33213983     1.113205   0.34576154   0.36361729   0.30467104    1.0140499 
  249400   -295667.78    899.36259   0.35863742    0.4211732   0.33230203    1.1121127   0.34630255   0.36358834   0.30452314     1.014414 
  249410   -295667.26    899.34064   0.35868192    0.4199332   0.33245292     1.111068   0.34684096   0.36353346   0.30437818    1.0147526 
  249420   -295678.97      900.878   0.35880826   0.41868585   0.33260128    1.1100954   0.34733189   0.36342458   0.30423163    1.0149881 
  249430   -295697.01          900   0.35900593   0.41743042   0.33272364      1.10916   0.34772113   0.36324741   0.30407795    1.0150465 
  249440    -295702.6    900.72089   0.35925739   0.41615238   0.33281173    1.1082215   0.34795425   0.36298316   0.30392274    1.0148602 
  249450   -295694.61    899.71098   0.35955132   0.41483782   0.33283697    1.1072261   0.34801082   0.36261444   0.30377564    1.0144009 
  249460   -295682.89          900   0.35988713   0.41348619   0.33282489    1.1061982   0.34789301   0.36212918   0.30364465    1.0136668 
  249470   -295674.52          900   0.36026711   0.41210385   0.33277881    1.1051498   0.34760382   0.36152029   0.30353391     1.012658 
  249480   -295670.28    899.42976   0.36068466   0.41070502   0.33264929     1.104039   0.34714872   0.36079034   0.30345037    1.0113894 
  249490   -295666.23          900   0.36112428   0.40930389   0.33254745    1.1029756   0.34653891   0.35995157   0.30340421    1.0098947 
  249500    -295658.8    899.00093   0.36157367   0.40791197   0.33242431      1.10191   0.34579385   0.35901945   0.30340681    1.0082201 
  249510   -295647.38          900   0.36202994   0.40653666   0.33224848    1.1008151   0.34495057   0.35800987   0.30347249    1.0064329 
  249520   -295630.99          900   0.36248756   0.40518004   0.33208906    1.0997567   0.34402788   0.35694714   0.30360832    1.0045833 
  249530   -295610.26          900   0.36293829   0.40385257   0.33192375    1.0987146   0.34303582   0.35586556   0.30380412    1.0027055 
  249540   -295583.81          900   0.36338123   0.40256112   0.33181538    1.0977577    0.3420361   0.35477702   0.30405039    1.0008635 
  249550   -295554.55          900   0.36381056   0.40131031   0.33167169    1.0967926   0.34108051   0.35368587   0.30433443    0.9991008 
  249560   -295523.67          900   0.36422014    0.4001028   0.33184973    1.0961727   0.34019974    0.3525939    0.3046526   0.99744623 
  249570   -295499.68          900   0.36460763   0.39893977   0.33176469    1.0953121   0.33940722   0.35149969   0.30500663   0.99591354 
  249580   -295482.62          900   0.36496885   0.39782457   0.33171332    1.0945067   0.33870936   0.35040105   0.30539185   0.99450226 
  249590    -295466.6          900   0.36529478   0.39676073   0.33237499    1.0944305   0.33811357   0.34928457   0.30581123   0.99320937 
  249600   -295449.29          900    0.3655839   0.39573957   0.33237017    1.0936936   0.33763675   0.34813337   0.30627175   0.99204187 
  249610   -295433.53          900   0.36583653   0.39475187   0.33238702    1.0929754    0.3372687   0.34694506   0.30677788   0.99099164 
  249620    -295422.2          900   0.36604013   0.39379636   0.33300483    1.0928413   0.33692922    0.3457331    0.3073312   0.98999352 
  249630   -295416.67    899.30555   0.36618322   0.39288266   0.33304058    1.0921065   0.33655359   0.34451897   0.30791877   0.98899133 
  249640   -295419.02    899.62833   0.36626583   0.39203319   0.33340122    1.0917002   0.33613999   0.34332967   0.30850622   0.98797589 
  249650   -295431.37          900   0.36628765   0.39126466   0.33344258    1.0909949   0.33571985   0.34219042   0.30905643   0.98696669 
  249660   -295450.72          900    0.3662388   0.39058435   0.33349213    1.0903153   0.33533433   0.34112617   0.30954378   0.98600428 
  249670   -295479.84          900     0.366109   0.38999732   0.33400162    1.0901079   0.33501197   0.34015565   0.30995156   0.98511917 
  249680   -295499.39          900   0.36589325   0.38950491   0.33406386     1.089462   0.33477758   0.33928371   0.31027327   0.98433456 
  249690   -295517.35          900   0.36559607    0.3891017   0.33413116    1.0888289   0.33465984   0.33849589   0.31051451   0.98367023 
  249700   -295537.37          900   0.36523193    0.3887791     0.334439      1.08845   0.33468748   0.33777851   0.31068763   0.98315362 
  249710   -295542.78    900.71168   0.36481424   0.38852664   0.33454873    1.0878896   0.33487282   0.33712407   0.31080556   0.98280245 
  249720   -295542.41    900.70844   0.36435046   0.38833184    0.3345249    1.0872072   0.33522891   0.33652114   0.31087834   0.98262838 
  249730   -295540.88    900.54938   0.36385052   0.38818571   0.33469683    1.0867331   0.33578508    0.3359572   0.31091714   0.98265942 
  249740   -295530.44    899.21524   0.36332056   0.38808211   0.33489494    1.0862976   0.33654477   0.33542379   0.31092782   0.98289638 
  249750   -295511.35          900   0.36277222   0.38801263   0.33465061    1.0854355   0.33749073   0.33491529    0.3108933   0.98329932 
  249760   -295484.01          900   0.36220542   0.38796563    0.3348848    1.0850558    0.3385841    0.3344236   0.31079481   0.98380251 
  249770   -295452.82          900   0.36161539    0.3879376    0.3346213    1.0841743   0.33978121   0.33394801    0.3106128   0.98434202 
  249780   -295430.05          900   0.36100019   0.38793524    0.3348804    1.0838158   0.34104121   0.33349087   0.31032687   0.98485895 
  249790   -295420.57          900    0.3603598   0.38796163   0.33514596    1.0834674   0.34231858   0.33305427   0.30991954   0.98529239 
  249800   -295418.34    899.71765   0.35969974   0.38801473   0.33475339    1.0824679   0.34358939   0.33264126   0.30939297   0.98562362 
  249810   -295426.65    900.81324    0.3590289   0.38808608   0.33504981    1.0821648   0.34483283   0.33224538   0.30877298   0.98585119 
  249820   -295446.06          900   0.35835705   0.38816552   0.33473692    1.0812595   0.34604351   0.33184773   0.30808534   0.98597658 
  249830   -295465.45          900   0.35769386   0.38824898   0.33510818     1.081051   0.34721707   0.33143578   0.30734889   0.98600173 
  249840   -295481.34          900   0.35704696   0.38833924   0.33552847    1.0809147   0.34835611   0.33102154   0.30657347   0.98595113 
  249850   -295487.46    900.79292   0.35642087   0.38844355   0.33538379    1.0802482   0.34944784   0.33062352   0.30578984    0.9858612 
  249860   -295489.45          900   0.35581649   0.38856134   0.33592821     1.080306   0.35045999   0.33026568   0.30501111   0.98573677 
  249870   -295491.99    900.29778   0.35523374   0.38867461   0.33651581    1.0804242   0.35135262   0.32997172   0.30423858   0.98556292 
  249880   -295505.44          900    0.3546763   0.38877303   0.33650424    1.0799536   0.35210689   0.32974603   0.30347918   0.98533211 
  249890   -295529.96          900   0.35414698   0.38885255   0.33717857    1.0801781   0.35271165      0.32959   0.30273308   0.98503473 
  249900   -295560.04          900   0.35365188   0.38890838     0.337313    1.0798733   0.35316534   0.32951504   0.30199518   0.98467556 
  249910   -295595.24          900    0.3531963   0.38893739   0.33806487    1.0801986   0.35347183   0.32952561   0.30125573   0.98425317 
  249920   -295628.53          900   0.35278501   0.38893918   0.33883486    1.0805591   0.35363649    0.3296187    0.3005018   0.98375699 
  249930   -295651.67          900   0.35242068   0.38891413    0.3392834    1.0806182   0.35365608   0.32978923   0.29973871   0.98318402 
  249940   -295663.03          900   0.35209671   0.38886598   0.34006489    1.0810276   0.35350983   0.33002456   0.29899856   0.98253295 
  249950   -295666.51     900.4216   0.35180324   0.38880226   0.34083814    1.0814436   0.35317144   0.33031074   0.29831859   0.98180077 
  249960   -295660.01    899.57308   0.35153589   0.38872839   0.34141797    1.0816822   0.35261813   0.33064236   0.29771914   0.98097963 
  249970   -295644.92          900   0.35129896   0.38864885   0.34216064    1.0821084   0.35183951   0.33101095   0.29720812   0.98005859 
  249980   -295624.21          900   0.35110344   0.38857733   0.34287776    1.0825585   0.35083999   0.33140206   0.29678062   0.97902267 
  249990   -295603.56          900    0.3509609   0.38851517   0.34378329    1.0832594   0.34964637   0.33179949   0.29643566   0.97788152 
  250000   -295582.11          900   0.35088049   0.38844546   0.34445366    1.0837796    0.3482967   0.33219501   0.29618135   0.97667306 
Loop time of 10641.7 on 32 procs for 250000 steps with 2577 atoms

Performance: 0.406 ns/day, 59.121 hours/ns, 23.492 timesteps/s
100.0% CPU use with 32 MPI tasks x no OpenMP threads

MPI task timing breakdown:
Section |  min time  |  avg time  |  max time  |%varavg| %total
---------------------------------------------------------------
Pair    | 5765.1     | 7299.2     | 9389.2     |1448.1 | 68.59
Neigh   | 56.122     | 80.484     | 103.8      | 231.6 |  0.76
Comm    | 45.428     | 1857       | 3662.7     |2549.2 | 17.45
Output  | 40.726     | 40.761     | 40.794     |   0.2 |  0.38
Modify  | 1055.8     | 1112.3     | 1203.6     | 165.3 | 10.45
Other   |            | 252        |            |       |  2.37

Nlocal:    80.5312 ave 97 max 66 min
Histogram: 1 4 3 5 6 3 5 3 0 2
Nghost:    1847.47 ave 2321 max 1431 min
Histogram: 16 0 0 0 0 0 0 0 8 8
Neighs:    24002.9 ave 33142 max 17526 min
Histogram: 3 5 6 3 5 0 3 4 1 2

Total # of neighbors = 768092
Ave neighs/atom = 298.057
Neighbor list builds = 9473
Dangerous builds = 0

Please see the log.cite file for references relevant to this simulation

Total wall time: 2:57:21
