ITEM: TIMESTEP
0
ITEM: NUMBER OF ATOMS
504
ITEM: BOX BOUNDS pp pp pp
0.0000000000000000e+00 1.8140991082884167e+01
0.0000000000000000e+00 1.8063003915761715e+01
0.0000000000000000e+00 1.7066716749471041e+01
ITEM: ATOMS id type x y z 
1 1 3.02343 1.47238 3.19062 
2 1 3.0235 0 0 
3 1 0.000580604 1.51188 1.07606 
4 1 1.5117 4.50263 2.13334 
5 1 3.0235 3.0105 0 
7 2 0.000253289 3.07861 2.19094 
8 2 1.44695 4.52695 4.24705 
9 2 3.02315 3.02522 2.06123 
10 2 0.000252965 5.98004 2.20545 
11 2 1.57645 4.4783 0.0196267 
12 2 4.46994 4.4783 0.0196267 
13 2 3.02315 5.92665 2.07574 
14 1 3.0235 6.021 0 
37 2 1.44635 1.44155 4.28631 
40 1 9.07043 1.47238 3.19062 
41 1 6.04758 1.51188 1.07606 
42 1 7.5587 4.50263 2.13334 
43 1 4.5352 4.50263 2.13334 
45 2 6.04725 3.07861 2.19094 
46 2 4.60046 4.52695 4.24705 
47 2 7.49395 4.52695 4.24705 
48 2 9.07015 3.02522 2.06123 
49 2 6.04725 5.98004 2.20545 
50 2 7.62345 4.4783 0.0196267 
51 2 9.07015 5.92665 2.07574 
80 2 4.59986 1.44155 4.28631 
81 2 7.49335 1.44155 4.28631 
83 1 6.0469 2.98425 4.26668 
84 1 3.02399 4.49613 5.34274 
87 1 6.0469 5.99475 4.26668 
6 1 3.02343 7.49338 3.19062 
15 1 0.000580604 7.53288 1.07606 
16 1 1.5117 10.5236 2.13334 
17 1 3.0235 9.0315 0 
19 2 0.000253289 9.09961 2.19094 
20 2 1.44695 10.548 4.24705 
21 2 3.02315 9.04622 2.06123 
22 2 0.000252965 12.001 2.20545 
23 2 1.57645 10.4993 0.0196267 
24 2 4.46994 10.4993 0.0196267 
25 2 3.02315 11.9476 2.07574 
26 1 3.0235 12.042 0 
38 2 1.44635 7.46255 4.28631 
44 1 9.07043 7.49338 3.19062 
52 1 6.04758 7.53288 1.07606 
53 1 7.5587 10.5236 2.13334 
54 1 4.5352 10.5236 2.13334 
56 2 6.04725 9.09961 2.19094 
57 2 4.60046 10.548 4.24705 
58 2 7.49395 10.548 4.24705 
59 2 9.07015 9.04622 2.06123 
60 2 6.04725 12.001 2.20545 
61 2 7.62345 10.4993 0.0196267 
62 2 9.07015 11.9476 2.07574 
94 2 4.59986 7.46255 4.28631 
95 2 7.49335 7.46255 4.28631 
97 1 6.0469 9.00525 4.26668 
98 1 3.02399 10.5171 5.34274 
101 1 6.0469 12.0158 4.26668 
18 1 3.02343 13.5144 3.19062 
27 1 0.000580604 13.5539 1.07606 
28 1 1.5117 16.5446 2.13334 
29 1 3.0235 15.0525 0 
30 2 0.000253289 15.1206 2.19094 
31 2 1.44695 16.569 4.24705 
32 2 3.02315 15.0672 2.06123 
33 2 0.000252965 18.022 2.20545 
34 2 1.57645 16.5203 0.0196267 
35 2 4.46994 16.5203 0.0196267 
36 2 3.02315 17.9686 2.07574 
39 2 1.44635 13.4836 4.28631 
55 1 9.07043 13.5144 3.19062 
63 1 6.04758 13.5539 1.07606 
64 1 7.5587 16.5446 2.13334 
65 1 4.5352 16.5446 2.13334 
66 2 6.04725 15.1206 2.19094 
67 2 4.60046 16.569 4.24705 
68 2 7.49395 16.569 4.24705 
69 2 9.07015 15.0672 2.06123 
70 2 6.04725 18.022 2.20545 
71 2 7.62345 16.5203 0.0196267 
72 2 9.07015 17.9686 2.07574 
108 2 4.59986 13.4836 4.28631 
109 2 7.49335 13.4836 4.28631 
111 1 6.0469 15.0263 4.26668 
112 1 3.02399 16.5381 5.34274 
113 1 6.0469 18.0368 4.26668 
73 1 4.53511 1.46588 6.40002 
74 1 1.51161 1.46588 6.40002 
75 1 6.04683 4.45663 7.4573 
76 2 3.02366 0.0418581 6.45762 
77 2 1.57687 1.4902 8.51373 
78 2 4.47036 1.4902 8.51373 
79 2 3.02366 2.94329 6.47213 
82 2 6.04656 2.8899 6.34242 
92 2 6.04656 6.00947 6.32791 
116 1 0.000389522 1.45938 9.60941 
117 1 1.51151 4.45013 10.6667 
118 1 3.02331 2.958 8.53336 
120 2 6.22067e-05 3.02611 10.7243 
122 2 3.02296 2.97272 10.5946 
123 2 6.18819e-05 5.92754 10.7388 
124 2 1.57626 4.4258 8.55299 
125 2 4.46975 4.4258 8.55299 
126 2 3.02296 5.87415 10.6091 
127 1 3.02331 5.9685 8.53336 
154 1 7.55861 1.46588 6.40002 
155 2 7.62387 1.4902 8.51373 
161 1 6.04739 1.45938 9.60941 
162 1 7.55851 4.45013 10.6667 
163 1 4.53501 4.45013 10.6667 
164 1 9.07031 2.958 8.53336 
166 2 6.04706 3.02611 10.7243 
169 2 9.06996 2.97272 10.5946 
170 2 6.04706 5.92754 10.7388 
171 2 7.62326 4.4258 8.55299 
172 2 9.06996 5.87415 10.6091 
173 1 9.07031 5.9685 8.53336 
85 1 4.53511 7.48688 6.40002 
86 1 1.51161 7.48688 6.40002 
88 1 6.04683 10.4776 7.4573 
89 2 3.02366 6.06286 6.45762 
90 2 1.57687 7.5112 8.51373 
91 2 4.47036 7.5112 8.51373 
93 2 3.02366 8.96429 6.47213 
96 2 6.04656 8.9109 6.34242 
106 2 6.04656 12.0305 6.32791 
128 1 0.000389522 7.48038 9.60941 
129 1 1.51151 10.4711 10.6667 
130 1 3.02331 8.979 8.53336 
132 2 6.22067e-05 9.04711 10.7243 
134 2 3.02296 8.99372 10.5946 
135 2 6.18819e-05 11.9485 10.7388 
136 2 1.57626 10.4468 8.55299 
137 2 4.46975 10.4468 8.55299 
138 2 3.02296 11.8951 10.6091 
139 1 3.02331 11.9895 8.53336 
156 1 7.55861 7.48688 6.40002 
157 2 7.62387 7.5112 8.51373 
174 1 6.04739 7.48038 9.60941 
175 1 7.55851 10.4711 10.6667 
176 1 4.53501 10.4711 10.6667 
177 1 9.07031 8.979 8.53336 
179 2 6.04706 9.04711 10.7243 
182 2 9.06996 8.99372 10.5946 
183 2 6.04706 11.9485 10.7388 
184 2 7.62326 10.4468 8.55299 
185 2 9.06996 11.8951 10.6091 
186 1 9.07031 11.9895 8.53336 
99 1 4.53511 13.5079 6.40002 
100 1 1.51161 13.5079 6.40002 
102 1 6.04683 16.4986 7.4573 
103 2 3.02366 12.0839 6.45762 
104 2 1.57687 13.5322 8.51373 
105 2 4.47036 13.5322 8.51373 
107 2 3.02366 14.9853 6.47213 
110 2 6.04656 14.9319 6.34242 
114 2 6.04656 18.0515 6.32791 
140 1 0.000389522 13.5014 9.60941 
141 1 1.51151 16.4921 10.6667 
142 1 3.02331 15 8.53336 
143 2 6.22067e-05 15.0681 10.7243 
145 2 3.02296 15.0147 10.5946 
146 2 6.18819e-05 17.9695 10.7388 
147 2 1.57626 16.4678 8.55299 
148 2 4.46975 16.4678 8.55299 
149 2 3.02296 17.9161 10.6091 
150 1 3.02331 18.0105 8.53336 
158 1 7.55861 13.5079 6.40002 
159 2 7.62387 13.5322 8.51373 
187 1 6.04739 13.5014 9.60941 
188 1 7.55851 16.4921 10.6667 
189 1 4.53501 16.4921 10.6667 
190 1 9.07031 15 8.53336 
191 2 6.04706 15.0681 10.7243 
194 2 9.06996 15.0147 10.5946 
195 2 6.04706 17.9695 10.7388 
196 2 7.62326 16.4678 8.55299 
197 2 9.06996 17.9161 10.6091 
198 1 9.07031 18.0105 8.53336 
115 1 3.02324 1.41988 11.724 
121 2 1.44676 4.47446 12.7804 
151 2 1.44616 1.38905 12.8197 
160 1 9.07024 1.41988 11.724 
167 2 4.60027 4.47446 12.7804 
168 2 7.49376 4.47446 12.7804 
199 1 4.53492 1.41338 14.9334 
200 1 1.51142 1.41338 14.9334 
201 1 6.04664 4.40413 15.9907 
202 2 1.57668 1.43771 17.0471 
203 2 4.47017 1.43771 17.0471 
204 2 3.02347 2.89079 15.0055 
205 2 4.59967 1.38905 12.8197 
206 2 7.49316 1.38905 12.8197 
207 2 6.04636 2.8374 14.8758 
208 1 6.04671 2.93176 12.8 
209 1 3.02379 4.44363 13.8761 
212 1 6.04671 5.94226 12.8 
214 2 3.02347 6.01036 14.991 
217 2 6.04636 5.95697 14.8613 
241 1 7.55842 1.41338 14.9334 
242 2 7.62368 1.43771 17.0471 
243 2 9.07047 2.89079 15.0055 
245 2 9.07047 6.01036 14.991 
119 1 3.02324 7.44088 11.724 
133 2 1.44676 10.4955 12.7804 
152 2 1.44616 7.41005 12.8197 
165 1 9.07024 7.44088 11.724 
180 2 4.60027 10.4955 12.7804 
181 2 7.49376 10.4955 12.7804 
210 1 4.53492 7.43438 14.9334 
211 1 1.51142 7.43438 14.9334 
213 1 6.04664 10.4251 15.9907 
215 2 1.57668 7.45871 17.0471 
216 2 4.47017 7.45871 17.0471 
218 2 3.02347 8.91179 15.0055 
219 2 4.59967 7.41005 12.8197 
220 2 7.49316 7.41005 12.8197 
221 2 6.04636 8.8584 14.8758 
222 1 6.04671 8.95276 12.8 
223 1 3.02379 10.4646 13.8761 
226 1 6.04671 11.9633 12.8 
228 2 3.02347 12.0314 14.991 
231 2 6.04636 11.978 14.8613 
244 1 7.55842 7.43438 14.9334 
246 2 7.62368 7.45871 17.0471 
247 2 9.07047 8.91179 15.0055 
249 2 9.07047 12.0314 14.991 
131 1 3.02324 13.4619 11.724 
144 2 1.44676 16.5165 12.7804 
153 2 1.44616 13.4311 12.8197 
178 1 9.07024 13.4619 11.724 
192 2 4.60027 16.5165 12.7804 
193 2 7.49376 16.5165 12.7804 
224 1 4.53492 13.4554 14.9334 
225 1 1.51142 13.4554 14.9334 
227 1 6.04664 16.4461 15.9907 
229 2 1.57668 13.4797 17.0471 
230 2 4.47017 13.4797 17.0471 
232 2 3.02347 14.9328 15.0055 
233 2 4.59967 13.4311 12.8197 
234 2 7.49316 13.4311 12.8197 
235 2 6.04636 14.8794 14.8758 
236 1 6.04671 14.9738 12.8 
237 1 3.02379 16.4856 13.8761 
238 1 6.04671 17.9843 12.8 
239 2 3.02347 18.0524 14.991 
240 2 6.04636 17.999 14.8613 
248 1 7.55842 13.4554 14.9334 
250 2 7.62368 13.4797 17.0471 
251 2 9.07047 14.9328 15.0055 
252 2 9.07047 18.0524 14.991 
253 1 9.0705 0 0 
254 1 9.0705 3.0105 0 
255 2 10.5169 4.4783 0.0196267 
256 1 9.0705 6.021 0 
262 1 15.1174 1.47238 3.19062 
263 1 15.1175 0 0 
264 1 12.0946 1.51188 1.07606 
265 1 13.6057 4.50263 2.13334 
266 1 10.5822 4.50263 2.13334 
267 1 15.1175 3.0105 0 
269 2 12.0943 3.07861 2.19094 
270 2 10.6475 4.52695 4.24705 
271 2 13.541 4.52695 4.24705 
272 2 15.1172 3.02522 2.06123 
273 2 12.0943 5.98004 2.20545 
274 2 13.6705 4.4783 0.0196267 
275 2 16.5639 4.4783 0.0196267 
276 2 15.1172 5.92665 2.07574 
277 1 15.1175 6.021 0 
309 2 10.6469 1.44155 4.28631 
310 2 13.5403 1.44155 4.28631 
312 1 12.0939 2.98425 4.26668 
313 1 9.07099 4.49613 5.34274 
315 1 12.0939 5.99475 4.26668 
343 1 16.6292 4.50263 2.13334 
344 2 16.6945 4.52695 4.24705 
356 2 16.6939 1.44155 4.28631 
358 1 18.1409 2.98425 4.26668 
359 1 15.118 4.49613 5.34274 
362 1 18.1409 5.99475 4.26668 
257 1 9.0705 9.0315 0 
258 2 10.5169 10.4993 0.0196267 
259 1 9.0705 12.042 0 
268 1 15.1174 7.49338 3.19062 
278 1 12.0946 7.53288 1.07606 
279 1 13.6057 10.5236 2.13334 
280 1 10.5822 10.5236 2.13334 
281 1 15.1175 9.0315 0 
283 2 12.0943 9.09961 2.19094 
284 2 10.6475 10.548 4.24705 
285 2 13.541 10.548 4.24705 
286 2 15.1172 9.04622 2.06123 
287 2 12.0943 12.001 2.20545 
288 2 13.6705 10.4993 0.0196267 
289 2 16.5639 10.4993 0.0196267 
290 2 15.1172 11.9476 2.07574 
291 1 15.1175 12.042 0 
321 2 10.6469 7.46255 4.28631 
322 2 13.5403 7.46255 4.28631 
324 1 12.0939 9.00525 4.26668 
325 1 9.07099 10.5171 5.34274 
327 1 12.0939 12.0158 4.26668 
345 1 16.6292 10.5236 2.13334 
346 2 16.6945 10.548 4.24705 
369 2 16.6939 7.46255 4.28631 
371 1 18.1409 9.00525 4.26668 
372 1 15.118 10.5171 5.34274 
375 1 18.1409 12.0158 4.26668 
260 1 9.0705 15.0525 0 
261 2 10.5169 16.5203 0.0196267 
282 1 15.1174 13.5144 3.19062 
292 1 12.0946 13.5539 1.07606 
293 1 13.6057 16.5446 2.13334 
294 1 10.5822 16.5446 2.13334 
295 1 15.1175 15.0525 0 
296 2 12.0943 15.1206 2.19094 
297 2 10.6475 16.569 4.24705 
298 2 13.541 16.569 4.24705 
299 2 15.1172 15.0672 2.06123 
300 2 12.0943 18.022 2.20545 
301 2 13.6705 16.5203 0.0196267 
302 2 16.5639 16.5203 0.0196267 
303 2 15.1172 17.9686 2.07574 
333 2 10.6469 13.4836 4.28631 
334 2 13.5403 13.4836 4.28631 
336 1 12.0939 15.0263 4.26668 
337 1 9.07099 16.5381 5.34274 
338 1 12.0939 18.0368 4.26668 
347 1 16.6292 16.5446 2.13334 
348 2 16.6945 16.569 4.24705 
382 2 16.6939 13.4836 4.28631 
384 1 18.1409 15.0263 4.26668 
385 1 15.118 16.5381 5.34274 
386 1 18.1409 18.0368 4.26668 
304 1 10.5821 1.46588 6.40002 
305 1 12.0938 4.45663 7.4573 
306 2 9.07066 0.0418581 6.45762 
307 2 10.5174 1.4902 8.51373 
308 2 9.07066 2.94329 6.47213 
311 2 12.0936 2.8899 6.34242 
319 2 12.0936 6.00947 6.32791 
340 2 10.5168 4.4258 8.55299 
349 1 16.6291 1.46588 6.40002 
350 1 13.6056 1.46588 6.40002 
351 1 18.1408 4.45663 7.4573 
352 2 15.1177 0.0418581 6.45762 
353 2 13.6709 1.4902 8.51373 
354 2 16.5644 1.4902 8.51373 
355 2 15.1177 2.94329 6.47213 
357 2 18.1406 2.8899 6.34242 
367 2 18.1406 6.00947 6.32791 
389 1 12.0944 1.45938 9.60941 
390 1 13.6055 4.45013 10.6667 
391 1 10.582 4.45013 10.6667 
392 1 15.1173 2.958 8.53336 
394 2 12.0941 3.02611 10.7243 
397 2 15.117 2.97272 10.5946 
398 2 12.0941 5.92754 10.7388 
399 2 13.6703 4.4258 8.55299 
400 2 16.5638 4.4258 8.55299 
401 2 15.117 5.87415 10.6091 
402 1 15.1173 5.9685 8.53336 
460 1 16.629 4.45013 10.6667 
314 1 10.5821 7.48688 6.40002 
316 1 12.0938 10.4776 7.4573 
317 2 9.07066 6.06286 6.45762 
318 2 10.5174 7.5112 8.51373 
320 2 9.07066 8.96429 6.47213 
323 2 12.0936 8.9109 6.34242 
331 2 12.0936 12.0305 6.32791 
341 2 10.5168 10.4468 8.55299 
360 1 16.6291 7.48688 6.40002 
361 1 13.6056 7.48688 6.40002 
363 1 18.1408 10.4776 7.4573 
364 2 15.1177 6.06286 6.45762 
365 2 13.6709 7.5112 8.51373 
366 2 16.5644 7.5112 8.51373 
368 2 15.1177 8.96429 6.47213 
370 2 18.1406 8.9109 6.34242 
380 2 18.1406 12.0305 6.32791 
403 1 12.0944 7.48038 9.60941 
404 1 13.6055 10.4711 10.6667 
405 1 10.582 10.4711 10.6667 
406 1 15.1173 8.979 8.53336 
408 2 12.0941 9.04711 10.7243 
411 2 15.117 8.99372 10.5946 
412 2 12.0941 11.9485 10.7388 
413 2 13.6703 10.4468 8.55299 
414 2 16.5638 10.4468 8.55299 
415 2 15.117 11.8951 10.6091 
416 1 15.1173 11.9895 8.53336 
462 1 16.629 10.4711 10.6667 
326 1 10.5821 13.5079 6.40002 
328 1 12.0938 16.4986 7.4573 
329 2 9.07066 12.0839 6.45762 
330 2 10.5174 13.5322 8.51373 
332 2 9.07066 14.9853 6.47213 
335 2 12.0936 14.9319 6.34242 
339 2 12.0936 18.0515 6.32791 
342 2 10.5168 16.4678 8.55299 
373 1 16.6291 13.5079 6.40002 
374 1 13.6056 13.5079 6.40002 
376 1 18.1408 16.4986 7.4573 
377 2 15.1177 12.0839 6.45762 
378 2 13.6709 13.5322 8.51373 
379 2 16.5644 13.5322 8.51373 
381 2 15.1177 14.9853 6.47213 
383 2 18.1406 14.9319 6.34242 
387 2 18.1406 18.0515 6.32791 
417 1 12.0944 13.5014 9.60941 
418 1 13.6055 16.4921 10.6667 
419 1 10.582 16.4921 10.6667 
420 1 15.1173 15 8.53336 
421 2 12.0941 15.0681 10.7243 
424 2 15.117 15.0147 10.5946 
425 2 12.0941 17.9695 10.7388 
426 2 13.6703 16.4678 8.55299 
427 2 16.5638 16.4678 8.55299 
428 2 15.117 17.9161 10.6091 
429 1 15.1173 18.0105 8.53336 
464 1 16.629 16.4921 10.6667 
388 1 15.1172 1.41988 11.724 
395 2 10.6473 4.47446 12.7804 
396 2 13.5408 4.47446 12.7804 
430 1 10.5819 1.41338 14.9334 
431 1 12.0936 4.40413 15.9907 
432 2 10.5172 1.43771 17.0471 
433 2 10.6467 1.38905 12.8197 
434 2 13.5402 1.38905 12.8197 
435 2 12.0934 2.8374 14.8758 
436 1 12.0937 2.93176 12.8 
437 1 9.07079 4.44363 13.8761 
439 1 12.0937 5.94226 12.8 
442 2 12.0934 5.95697 14.8613 
461 2 16.6943 4.47446 12.7804 
466 1 16.6289 1.41338 14.9334 
467 1 13.6054 1.41338 14.9334 
468 1 18.1406 4.40413 15.9907 
469 2 13.6707 1.43771 17.0471 
470 2 16.5642 1.43771 17.0471 
471 2 15.1175 2.89079 15.0055 
472 2 16.6937 1.38905 12.8197 
473 2 18.1404 2.8374 14.8758 
474 1 18.1407 2.93176 12.8 
475 1 15.1178 4.44363 13.8761 
478 1 18.1407 5.94226 12.8 
480 2 15.1175 6.01036 14.991 
483 2 18.1404 5.95697 14.8613 
393 1 15.1172 7.44088 11.724 
409 2 10.6473 10.4955 12.7804 
410 2 13.5408 10.4955 12.7804 
438 1 10.5819 7.43438 14.9334 
440 1 12.0936 10.4251 15.9907 
441 2 10.5172 7.45871 17.0471 
443 2 10.6467 7.41005 12.8197 
444 2 13.5402 7.41005 12.8197 
445 2 12.0934 8.8584 14.8758 
446 1 12.0937 8.95276 12.8 
447 1 9.07079 10.4646 13.8761 
449 1 12.0937 11.9633 12.8 
452 2 12.0934 11.978 14.8613 
463 2 16.6943 10.4955 12.7804 
476 1 16.6289 7.43438 14.9334 
477 1 13.6054 7.43438 14.9334 
479 1 18.1406 10.4251 15.9907 
481 2 13.6707 7.45871 17.0471 
482 2 16.5642 7.45871 17.0471 
484 2 15.1175 8.91179 15.0055 
485 2 16.6937 7.41005 12.8197 
486 2 18.1404 8.8584 14.8758 
487 1 18.1407 8.95276 12.8 
488 1 15.1178 10.4646 13.8761 
491 1 18.1407 11.9633 12.8 
493 2 15.1175 12.0314 14.991 
496 2 18.1404 11.978 14.8613 
407 1 15.1172 13.4619 11.724 
422 2 10.6473 16.5165 12.7804 
423 2 13.5408 16.5165 12.7804 
448 1 10.5819 13.4554 14.9334 
450 1 12.0936 16.4461 15.9907 
451 2 10.5172 13.4797 17.0471 
453 2 10.6467 13.4311 12.8197 
454 2 13.5402 13.4311 12.8197 
455 2 12.0934 14.8794 14.8758 
456 1 12.0937 14.9738 12.8 
457 1 9.07079 16.4856 13.8761 
458 1 12.0937 17.9843 12.8 
459 2 12.0934 17.999 14.8613 
465 2 16.6943 16.5165 12.7804 
489 1 16.6289 13.4554 14.9334 
490 1 13.6054 13.4554 14.9334 
492 1 18.1406 16.4461 15.9907 
494 2 13.6707 13.4797 17.0471 
495 2 16.5642 13.4797 17.0471 
497 2 15.1175 14.9328 15.0055 
498 2 16.6937 13.4311 12.8197 
499 2 18.1404 14.8794 14.8758 
500 1 18.1407 14.9738 12.8 
501 1 15.1178 16.4856 13.8761 
502 1 18.1407 17.9843 12.8 
503 2 15.1175 18.0524 14.991 
504 2 18.1404 17.999 14.8613 
ITEM: TIMESTEP
50
ITEM: NUMBER OF ATOMS
504
ITEM: BOX BOUNDS pp pp pp
1.8140991082884186e-01 1.7959581172055291e+01
1.8063003915761719e-01 1.7882373876604081e+01
1.7066716749471028e-01 1.6896049581976357e+01
ITEM: ATOMS id type x y z 
1 1 3.14437 1.62165 3.29611 
2 1 3.14443 17.878 0.174898 
3 1 0.181981 1.65884 1.22684 
4 1 1.66283 4.59323 2.26129 
5 1 3.14443 3.12627 16.892 
7 2 0.181639 3.20889 2.32498 
8 2 1.58985 4.61313 4.32322 
9 2 3.14412 3.15843 2.18562 
10 2 0.181638 6.02731 2.33697 
11 2 1.73592 4.56781 0.199395 
12 2 4.55238 4.56781 0.199415 
13 2 3.14413 5.97673 2.19772 
14 1 3.14443 6.07688 0.174898 
37 2 1.58927 1.59729 4.38082 
40 1 9.07043 1.62165 3.29611 
41 1 6.10804 1.65884 1.22684 
42 1 7.58889 4.59323 2.26129 
43 1 4.62595 4.59323 2.26129 
45 2 6.1077 3.20889 2.32498 
46 2 4.69942 4.61313 4.32321 
47 2 7.51591 4.61313 4.32322 
48 2 9.07018 3.15843 2.18562 
49 2 6.1077 6.02731 2.33697 
50 2 7.66198 4.56781 0.199395 
51 2 9.07019 5.97673 2.19772 
80 2 4.69884 1.59729 4.38079 
81 2 7.51533 1.59729 4.38082 
83 1 6.10737 3.1052 4.35196 
84 1 3.14491 4.58875 5.4079 
87 1 6.10737 6.05552 4.35202 
6 1 3.14437 7.52223 3.29611 
15 1 0.181981 7.55942 1.22684 
16 1 1.66283 10.4938 2.26129 
17 1 3.14443 9.02685 16.892 
19 2 0.181639 9.10947 2.32498 
20 2 1.58985 10.5137 4.32322 
21 2 3.14412 9.05901 2.18562 
22 2 0.181638 11.9279 2.33697 
23 2 1.73592 10.4684 0.199395 
24 2 4.55238 10.4684 0.199415 
25 2 3.14413 11.8773 2.19772 
26 1 3.14443 11.9775 0.174898 
38 2 1.58927 7.49787 4.38082 
44 1 9.07043 7.52223 3.29611 
52 1 6.10804 7.55942 1.22684 
53 1 7.58889 10.4938 2.26129 
54 1 4.62595 10.4938 2.26129 
56 2 6.1077 9.10947 2.32498 
57 2 4.69942 10.5137 4.32321 
58 2 7.51591 10.5137 4.32322 
59 2 9.07018 9.05901 2.18562 
60 2 6.1077 11.9279 2.33697 
61 2 7.66198 10.4684 0.199395 
62 2 9.07019 11.8773 2.19772 
94 2 4.69884 7.49787 4.38079 
95 2 7.51533 7.49787 4.38082 
97 1 6.10737 9.00578 4.35196 
98 1 3.14491 10.4893 5.4079 
101 1 6.10737 11.9561 4.35202 
18 1 3.14437 13.4228 3.29611 
27 1 0.181981 13.46 1.22684 
28 1 1.66283 16.3944 2.26129 
29 1 3.14443 14.9274 16.892 
30 2 0.181639 15.0101 2.32498 
31 2 1.58985 16.4143 4.32322 
32 2 3.14412 14.9596 2.18562 
33 2 0.181638 17.8285 2.33697 
34 2 1.73592 16.369 0.199395 
35 2 4.55238 16.369 0.199415 
36 2 3.14413 17.7779 2.19772 
39 2 1.58927 13.3985 4.38082 
55 1 9.07043 13.4228 3.29611 
63 1 6.10804 13.46 1.22684 
64 1 7.58889 16.3944 2.26129 
65 1 4.62595 16.3944 2.26129 
66 2 6.1077 15.0101 2.32498 
67 2 4.69942 16.4143 4.32321 
68 2 7.51591 16.4143 4.32322 
69 2 9.07018 14.9596 2.18562 
70 2 6.1077 17.8285 2.33697 
71 2 7.66198 16.369 0.199395 
72 2 9.07019 17.7779 2.19772 
108 2 4.69884 13.3985 4.38079 
109 2 7.51533 13.3985 4.38082 
111 1 6.10737 14.9064 4.35196 
112 1 3.14491 16.3899 5.4079 
113 1 6.10737 17.8567 4.35202 
73 1 4.62581 1.61718 6.44269 
74 1 1.66278 1.61718 6.44268 
75 1 6.1073 4.54623 7.47747 
76 2 3.14458 0.233223 6.50738 
77 2 1.7363 1.63709 8.50455 
78 2 4.55278 1.63709 8.50457 
79 2 3.14458 3.05153 6.51728 
82 2 6.10706 3.00116 6.378 
92 2 6.10706 6.08344 6.36808 
116 1 0.18179 1.61273 9.58924 
117 1 1.66269 4.54177 10.624 
118 1 3.14425 3.07947 8.53336 
120 2 0.181453 3.15778 10.6887 
122 2 3.14394 3.10741 10.5494 
123 2 0.181452 5.97609 10.6986 
124 2 1.73572 4.52186 8.56214 
125 2 4.5522 4.52186 8.56217 
126 2 3.14394 5.92572 10.5593 
127 1 3.14425 6.02976 8.53336 
154 1 7.58884 1.61718 6.44268 
155 2 7.66236 1.63709 8.50455 
161 1 6.10785 1.61273 9.58924 
162 1 7.58875 4.54177 10.624 
163 1 4.62572 4.54177 10.624 
164 1 9.07031 3.07947 8.53336 
166 2 6.10751 3.15778 10.6887 
169 2 9.07 3.10741 10.5494 
170 2 6.10751 5.97609 10.6986 
171 2 7.66178 4.52186 8.56214 
172 2 9.07 5.92572 10.5593 
173 1 9.07031 6.02976 8.53336 
85 1 4.62581 7.51776 6.44269 
86 1 1.66278 7.51776 6.44268 
88 1 6.1073 10.4468 7.47748 
89 2 3.14458 6.1338 6.50738 
90 2 1.7363 7.53767 8.50455 
91 2 4.55278 7.53767 8.50457 
93 2 3.14458 8.95211 6.51728 
96 2 6.10706 8.90174 6.378 
106 2 6.10706 11.984 6.36808 
128 1 0.18179 7.51331 9.58924 
129 1 1.66269 10.4423 10.624 
130 1 3.14425 8.98005 8.53336 
132 2 0.181453 9.05836 10.6887 
134 2 3.14394 9.00799 10.5494 
135 2 0.181452 11.8767 10.6986 
136 2 1.73572 10.4224 8.56214 
137 2 4.5522 10.4224 8.56217 
138 2 3.14394 11.8263 10.5593 
139 1 3.14425 11.9303 8.53336 
156 1 7.58884 7.51776 6.44268 
157 2 7.66236 7.53767 8.50455 
174 1 6.10785 7.51331 9.58924 
175 1 7.58875 10.4423 10.624 
176 1 4.62572 10.4423 10.624 
177 1 9.07031 8.98005 8.53336 
179 2 6.10751 9.05836 10.6887 
182 2 9.07 9.00799 10.5494 
183 2 6.10751 11.8767 10.6986 
184 2 7.66178 10.4224 8.56214 
185 2 9.07 11.8263 10.5593 
186 1 9.07031 11.9303 8.53336 
99 1 4.62581 13.4183 6.44269 
100 1 1.66278 13.4183 6.44268 
102 1 6.1073 16.3474 7.47748 
103 2 3.14458 12.0344 6.50738 
104 2 1.7363 13.4382 8.50455 
105 2 4.55278 13.4382 8.50457 
107 2 3.14458 14.8527 6.51728 
110 2 6.10706 14.8023 6.378 
114 2 6.10706 0.182852 6.36808 
140 1 0.18179 13.4139 9.58924 
141 1 1.66269 16.3429 10.624 
142 1 3.14425 14.8806 8.53336 
143 2 0.181453 14.9589 10.6887 
145 2 3.14394 14.9086 10.5494 
146 2 0.181452 17.7772 10.6986 
147 2 1.73572 16.323 8.56214 
148 2 4.5522 16.323 8.56217 
149 2 3.14394 17.7269 10.5593 
150 1 3.14425 17.8309 8.53336 
158 1 7.58884 13.4183 6.44268 
159 2 7.66236 13.4382 8.50455 
187 1 6.10785 13.4139 9.58924 
188 1 7.58875 16.3429 10.624 
189 1 4.62572 16.3429 10.624 
190 1 9.07031 14.8806 8.53336 
191 2 6.10751 14.9589 10.6887 
194 2 9.07 14.9086 10.5494 
195 2 6.10751 17.7772 10.6986 
196 2 7.66178 16.323 8.56214 
197 2 9.07 17.7269 10.5593 
198 1 9.07031 17.8309 8.53336 
115 1 3.14418 1.5702 11.6588 
121 2 1.58966 4.56165 12.6859 
151 2 1.58908 1.54577 12.7435 
160 1 9.07024 1.5702 11.6588 
167 2 4.69923 4.56165 12.6859 
168 2 7.51572 4.56165 12.6859 
199 1 4.62574 1.56779 14.8054 
200 1 1.6625 1.56779 14.8054 
201 1 6.10711 4.49926 15.8399 
202 2 1.73617 1.59283 16.8672 
203 2 4.55254 1.59283 16.8672 
204 2 3.14439 3.00189 14.8818 
205 2 4.69865 1.54577 12.7435 
206 2 7.51514 1.54577 12.7435 
207 2 6.10688 2.95018 14.7419 
208 1 6.10719 3.05378 12.7147 
209 1 3.14473 4.53674 13.7706 
212 1 6.10719 6.00402 12.7147 
214 2 3.14439 6.08413 14.8682 
217 2 6.10688 6.03231 14.7296 
241 1 7.58856 1.56779 14.8054 
242 2 7.66223 1.59283 16.8672 
243 2 9.07045 3.00189 14.8818 
245 2 9.07045 6.08413 14.8682 
119 1 3.14418 7.47078 11.6588 
133 2 1.58966 10.4622 12.6859 
152 2 1.58908 7.44635 12.7435 
165 1 9.07024 7.47078 11.6588 
180 2 4.69923 10.4622 12.6859 
181 2 7.51572 10.4622 12.6859 
210 1 4.62573 7.46837 14.8054 
211 1 1.6625 7.46837 14.8054 
213 1 6.10711 10.3998 15.8399 
215 2 1.73617 7.49341 16.8672 
216 2 4.55254 7.49341 16.8672 
218 2 3.14439 8.90247 14.8818 
219 2 4.69865 7.44635 12.7435 
220 2 7.51514 7.44635 12.7435 
221 2 6.10688 8.85076 14.7419 
222 1 6.10719 8.95436 12.7147 
223 1 3.14473 10.4373 13.7706 
226 1 6.10719 11.9046 12.7147 
228 2 3.14439 11.9847 14.8682 
231 2 6.10688 11.9329 14.7296 
244 1 7.58856 7.46837 14.8054 
246 2 7.66223 7.49341 16.8672 
247 2 9.07045 8.90247 14.8818 
249 2 9.07045 11.9847 14.8682 
131 1 3.14418 13.3714 11.6588 
144 2 1.58966 16.3628 12.6859 
153 2 1.58908 13.3469 12.7435 
178 1 9.07024 13.3714 11.6588 
192 2 4.69923 16.3628 12.6859 
193 2 7.51572 16.3628 12.6859 
224 1 4.62573 13.369 14.8054 
225 1 1.6625 13.3689 14.8054 
227 1 6.10711 16.3004 15.8399 
229 2 1.73617 13.394 16.8672 
230 2 4.55254 13.394 16.8672 
232 2 3.14439 14.803 14.8818 
233 2 4.69865 13.3469 12.7435 
234 2 7.51514 13.3469 12.7435 
235 2 6.10688 14.7513 14.7419 
236 1 6.10719 14.8549 12.7147 
237 1 3.14473 16.3379 13.7706 
238 1 6.10719 17.8052 12.7147 
239 2 3.14439 0.183543 14.8682 
240 2 6.10688 17.8335 14.7296 
248 1 7.58856 13.3689 14.8054 
250 2 7.66223 13.394 16.8672 
251 2 9.07045 14.803 14.8818 
252 2 9.07045 0.183543 14.8682 
253 1 9.07049 17.878 0.174898 
254 1 9.07049 3.12627 16.892 
256 1 9.07049 6.07688 0.174898 
257 1 9.07049 9.02685 16.892 
259 1 9.07049 11.9775 0.174898 
260 1 9.07049 14.9274 16.892 
504 2 17.959 17.8335 14.7296 
503 2 14.9965 0.183543 14.8682 
255 2 10.4784 4.56781 0.199415 
502 1 17.9593 17.8052 12.7147 
262 1 14.9965 1.62165 3.29611 
263 1 14.9965 17.878 0.174898 
264 1 12.0341 1.65884 1.22684 
265 1 13.5149 4.59323 2.26129 
266 1 10.552 4.59323 2.26129 
267 1 14.9965 3.12627 16.892 
269 2 12.0338 3.20889 2.32498 
270 2 10.6255 4.61313 4.32321 
271 2 13.442 4.61313 4.32322 
272 2 14.9962 3.15843 2.18562 
273 2 12.0338 6.02731 2.33697 
274 2 13.588 4.56781 0.199395 
275 2 16.4045 4.56781 0.199415 
276 2 14.9962 5.97673 2.19772 
277 1 14.9965 6.07688 0.174898 
309 2 10.6249 1.59729 4.38079 
310 2 13.4414 1.59729 4.38082 
312 1 12.0334 3.1052 4.35196 
313 1 9.07097 4.58875 5.4079 
315 1 12.0334 6.05552 4.35202 
343 1 16.4781 4.59323 2.26129 
344 2 16.5515 4.61313 4.32321 
356 2 16.551 1.59729 4.38079 
358 1 17.9595 3.1052 4.35196 
359 1 14.997 4.58875 5.4079 
362 1 17.9595 6.05552 4.35202 
501 1 14.9968 16.3379 13.7706 
258 2 10.4784 10.4684 0.199415 
500 1 17.9593 14.8549 12.7147 
268 1 14.9965 7.52223 3.29611 
278 1 12.0341 7.55942 1.22684 
279 1 13.5149 10.4938 2.26129 
280 1 10.552 10.4938 2.26129 
281 1 14.9965 9.02685 16.892 
283 2 12.0338 9.10947 2.32498 
284 2 10.6255 10.5137 4.32321 
285 2 13.442 10.5137 4.32322 
286 2 14.9962 9.05901 2.18562 
287 2 12.0338 11.9279 2.33697 
288 2 13.588 10.4684 0.199395 
289 2 16.4045 10.4684 0.199415 
290 2 14.9962 11.8773 2.19772 
291 1 14.9965 11.9775 0.174898 
321 2 10.6249 7.49787 4.38079 
322 2 13.4414 7.49787 4.38082 
324 1 12.0334 9.00578 4.35196 
325 1 9.07097 10.4893 5.4079 
327 1 12.0334 11.9561 4.35202 
345 1 16.4781 10.4938 2.26129 
346 2 16.5515 10.5137 4.32321 
369 2 16.551 7.49787 4.38079 
371 1 17.9595 9.00578 4.35196 
372 1 14.997 10.4893 5.4079 
375 1 17.9595 11.9561 4.35202 
499 2 17.959 14.7513 14.7419 
261 2 10.4784 16.369 0.199415 
282 1 14.9965 13.4228 3.29611 
292 1 12.0341 13.46 1.22684 
293 1 13.5149 16.3944 2.26129 
294 1 10.552 16.3944 2.26129 
295 1 14.9965 14.9274 16.892 
296 2 12.0338 15.0101 2.32498 
297 2 10.6255 16.4143 4.32321 
298 2 13.442 16.4143 4.32322 
299 2 14.9962 14.9596 2.18562 
300 2 12.0338 17.8285 2.33697 
301 2 13.588 16.369 0.199395 
302 2 16.4045 16.369 0.199415 
303 2 14.9962 17.7779 2.19772 
333 2 10.6249 13.3985 4.38079 
334 2 13.4414 13.3985 4.38082 
336 1 12.0334 14.9064 4.35196 
337 1 9.07097 16.3899 5.4079 
338 1 12.0334 17.8567 4.35202 
347 1 16.4781 16.3944 2.26129 
348 2 16.5515 16.4143 4.32321 
382 2 16.551 13.3985 4.38079 
384 1 17.9595 14.9064 4.35196 
385 1 14.997 16.3899 5.4079 
386 1 17.9595 17.8567 4.35202 
304 1 10.5519 1.61718 6.44269 
305 1 12.0334 4.54623 7.47747 
306 2 9.07064 0.233223 6.50738 
307 2 10.4788 1.63709 8.50457 
308 2 9.07064 3.05153 6.51728 
311 2 12.0331 3.00116 6.378 
319 2 12.0331 6.08344 6.36808 
340 2 10.4783 4.52186 8.56217 
349 1 16.4779 1.61718 6.44269 
350 1 13.5149 1.61718 6.44268 
351 1 17.9594 4.54623 7.47748 
352 2 14.9967 0.233223 6.50738 
353 2 13.5884 1.63709 8.50455 
354 2 16.4049 1.63709 8.50457 
355 2 14.9967 3.05153 6.51728 
357 2 17.9592 3.00116 6.378 
367 2 17.9592 6.08344 6.36808 
389 1 12.0339 1.61273 9.58924 
390 1 13.5148 4.54177 10.624 
391 1 10.5518 4.54177 10.624 
392 1 14.9964 3.07947 8.53336 
394 2 12.0336 3.15778 10.6887 
397 2 14.9961 3.10741 10.5494 
398 2 12.0336 5.97609 10.6986 
399 2 13.5878 4.52186 8.56214 
400 2 16.4043 4.52186 8.56217 
401 2 14.9961 5.92572 10.5593 
402 1 14.9964 6.02976 8.53336 
460 1 16.4778 4.54177 10.624 
314 1 10.5519 7.51776 6.44269 
316 1 12.0334 10.4468 7.47748 
317 2 9.07064 6.1338 6.50738 
318 2 10.4788 7.53767 8.50457 
320 2 9.07064 8.95211 6.51728 
323 2 12.0331 8.90174 6.378 
331 2 12.0331 11.984 6.36808 
341 2 10.4783 10.4224 8.56217 
360 1 16.4779 7.51776 6.44269 
361 1 13.5149 7.51776 6.44268 
363 1 17.9594 10.4468 7.47748 
364 2 14.9967 6.1338 6.50738 
365 2 13.5884 7.53767 8.50455 
366 2 16.4049 7.53767 8.50457 
368 2 14.9967 8.95211 6.51728 
370 2 17.9592 8.90174 6.378 
380 2 17.9592 11.984 6.36808 
403 1 12.0339 7.51331 9.58924 
404 1 13.5148 10.4423 10.624 
405 1 10.5518 10.4423 10.624 
406 1 14.9964 8.98005 8.53336 
408 2 12.0336 9.05836 10.6887 
411 2 14.9961 9.00799 10.5494 
412 2 12.0336 11.8767 10.6986 
413 2 13.5878 10.4224 8.56214 
414 2 16.4043 10.4224 8.56217 
415 2 14.9961 11.8263 10.5593 
416 1 14.9964 11.9303 8.53336 
462 1 16.4778 10.4423 10.624 
326 1 10.5519 13.4183 6.44269 
328 1 12.0334 16.3474 7.47748 
329 2 9.07064 12.0344 6.50738 
330 2 10.4788 13.4382 8.50457 
332 2 9.07064 14.8527 6.51728 
335 2 12.0331 14.8023 6.378 
339 2 12.0331 0.182852 6.36808 
342 2 10.4783 16.323 8.56217 
373 1 16.4779 13.4183 6.44269 
374 1 13.5149 13.4183 6.44268 
376 1 17.9594 16.3474 7.47748 
377 2 14.9967 12.0344 6.50738 
378 2 13.5884 13.4382 8.50455 
379 2 16.4049 13.4382 8.50457 
381 2 14.9967 14.8527 6.51728 
383 2 17.9592 14.8023 6.378 
387 2 17.9592 0.182852 6.36808 
417 1 12.0339 13.4139 9.58924 
418 1 13.5148 16.3429 10.624 
419 1 10.5518 16.3429 10.624 
420 1 14.9964 14.8806 8.53336 
421 2 12.0336 14.9589 10.6887 
424 2 14.9961 14.9086 10.5494 
425 2 12.0336 17.7772 10.6986 
426 2 13.5878 16.323 8.56214 
427 2 16.4043 16.323 8.56217 
428 2 14.9961 17.7269 10.5593 
429 1 14.9964 17.8309 8.53336 
464 1 16.4778 16.3429 10.624 
388 1 14.9963 1.5702 11.6588 
395 2 10.6253 4.56165 12.6859 
396 2 13.4418 4.56165 12.6859 
430 1 10.5518 1.56779 14.8054 
431 1 12.0332 4.49926 15.8399 
432 2 10.4786 1.59283 16.8672 
433 2 10.6247 1.54577 12.7435 
434 2 13.4412 1.54577 12.7435 
435 2 12.0329 2.95018 14.7419 
436 1 12.0332 3.05378 12.7147 
437 1 9.07079 4.53674 13.7706 
439 1 12.0332 6.00402 12.7147 
442 2 12.0329 6.03231 14.7296 
461 2 16.5514 4.56165 12.6859 
466 1 16.4779 1.56779 14.8054 
467 1 13.5146 1.56779 14.8054 
468 1 17.9592 4.49926 15.8399 
469 2 13.5883 1.59283 16.8672 
470 2 16.4047 1.59283 16.8672 
471 2 14.9965 3.00189 14.8818 
472 2 16.5508 1.54577 12.7435 
473 2 17.959 2.95018 14.7419 
474 1 17.9593 3.05378 12.7147 
475 1 14.9968 4.53674 13.7706 
478 1 17.9593 6.00402 12.7147 
480 2 14.9965 6.08413 14.8682 
483 2 17.959 6.03231 14.7296 
393 1 14.9963 7.47078 11.6588 
409 2 10.6253 10.4622 12.6859 
410 2 13.4418 10.4622 12.6859 
438 1 10.5518 7.46837 14.8054 
440 1 12.0332 10.3998 15.8399 
441 2 10.4786 7.49341 16.8672 
443 2 10.6247 7.44635 12.7435 
444 2 13.4412 7.44635 12.7435 
445 2 12.0329 8.85076 14.7419 
446 1 12.0332 8.95436 12.7147 