LAMMPS (7 Aug 2019)
Created orthogonal box = (0 0 0) to (18.5604 42.4 40)
  2 by 4 by 4 MPI processor grid
Reading data file ...
  orthogonal box = (0 0 -0.171776) to (18.5604 42.4 41.6292)
  2 by 4 by 4 MPI processor grid
  reading atoms ...
  2577 atoms
  reading velocities ...
  2577 velocities
  read_data CPU = 0.0154797 secs
719 atoms in group boundary
1149 atoms in group Fe
1428 atoms in group O
312 atoms in group Feb
407 atoms in group Ob
Reading potential file ffield.reax.Fe_O_C_H with DATE: 2011-02-18
ERROR: Could not find thermo custom compute ID (../thermo.cpp:923)
Last command: thermo_style 	custom step pe c_T 	c_meandispFe[1] c_meandispFe[2] 	c_meandispFe[3] c_meandispFe[4] 	c_meandispO[1] c_meandispO[2] 	c_meandispO[3] c_meandispO[4]
srun: error: host9: tasks 0-31: Exited with exit code 1
srun: Terminating job step 29863.0
