LAMMPS (7 Aug 2019)
Created orthogonal box = (0 0 0) to (18.5604 42.4 40)
  2 by 4 by 4 MPI processor grid
Reading data file ...
  orthogonal box = (0 0 -0.171776) to (18.5604 42.4 41.6292)
  2 by 4 by 4 MPI processor grid
  reading atoms ...
  2577 atoms
  reading velocities ...
  2577 velocities
  read_data CPU = 0.0172229 secs
719 atoms in group boundary
1149 atoms in group Fe
1428 atoms in group O
312 atoms in group Feb
407 atoms in group Ob
Reading potential file ffield.reax.Fe_O_C_H with DATE: 2011-02-18
Neighbor list info ...
  update every 1 steps, delay 5 steps, check yes
  max neighbors/atom: 2000, page size: 100000
  master list distance cutoff = 10.3
  ghost atom cutoff = 10.3
  binsize = 5.15, bins = 4 9 9
  2 neighbor lists, perpetual/occasional/extra = 2 0 0
  (1) pair reax/c, perpetual
      attributes: half, newton off, ghost
      pair build: half/bin/newtoff/ghost
      stencil: half/ghost/bin/3d/newtoff
      bin: standard
  (2) fix qeq/reax, perpetual, copy from (1)
      attributes: half, newton off, ghost
      pair build: copy
      stencil: none
      bin: none
Setting up Verlet run ...
  Unit style    : real
  Current step  : 0
  Time step     : 1
Per MPI rank memory allocation (min/avg/max) = 36.41 | 45.46 | 53.73 Mbytes
Step PotEng c_T c_avesqdispFe1 c_avesqdispFe2 c_avesqdispFe3 c_avesqdispFe4 c_avesqdispO1 c_avesqdispO2 c_avesqdispO3 c_avesqdispO4 
       0   -294261.51         1500            0            0            0            0            0            0            0            0 
      10   -293340.83         1500   0.00222847 0.0024679945 0.0023297326  0.007026197 0.0071023432 0.0072290885 0.0076460425  0.021977474 
      20   -291895.37         1500 0.0088337756 0.0097815991 0.0090553998  0.027670775  0.024723424  0.025889269  0.027202444  0.077815138 
      30   -290791.21         1500  0.019496362  0.021085014  0.019383553  0.059964929  0.046634593  0.049566916  0.051433246   0.14763475 
      40   -290216.81         1500  0.032988607  0.034794022  0.031990076  0.099772705  0.067517866  0.072766561  0.074247009   0.21453144 
      50   -289956.32         1500  0.047274842  0.049281078  0.045475669   0.14203159  0.083739393  0.091369605  0.091176589   0.26628559 
      60   -289926.42         1500  0.061004423  0.063257928  0.058667042   0.18292939  0.093639946   0.10317629   0.10061493   0.29743117 
      70   -289871.74         1500   0.07285531    0.0759151   0.07130319    0.2200736  0.098413759    0.1075726   0.10344562   0.30943198 
      80   -289728.73         1500  0.082295325  0.086738811  0.083587455   0.25262159   0.10102021   0.10788818   0.10061481    0.3095232 
      90   -289662.57         1500   0.08930168  0.095466889  0.095254056   0.28002263   0.10302252   0.10717789  0.096801826   0.30700223 
     100   -289642.35         1500  0.094529171   0.10173448   0.10522854    0.3014922   0.10539491   0.10797506  0.096751678   0.31012165 
     110   -289574.43         1500  0.098472907    0.1058606   0.11225173   0.31658524   0.10729658   0.11089284   0.10167406   0.31986348 
     120   -289627.79         1500   0.10194975   0.10842027   0.11597497   0.32634499   0.10905414   0.11614277   0.11098279    0.3361797 
     130   -289668.82         1500   0.10578513   0.11083434   0.11920633    0.3358258   0.11278874   0.12256871   0.12179318   0.35715063 
     140   -289678.17         1500   0.10974601   0.11340179   0.12103844   0.34418624   0.11946704   0.13004441   0.13222811   0.38173956 
     150   -289581.59         1500   0.11384977   0.11550141   0.12239505   0.35174623    0.1268158   0.13857692   0.13994816   0.40534089 
     160   -289493.89         1500    0.1178408   0.11725683   0.12278006   0.35787769   0.13314349   0.14569236    0.1431381   0.42197395 
     170   -289313.95         1500   0.12157023   0.11861202   0.12229419   0.36247643   0.13825203   0.14979934   0.14371343    0.4317648 
     180    -289363.9         1500    0.1247531   0.11961838   0.12259053   0.36696201   0.14136635   0.14960384    0.1424186   0.43338879 
     190   -289668.03         1500   0.12684831   0.12058239   0.12350324   0.37093393   0.14410952   0.14672509   0.14108552   0.43192013 
     200   -289525.17         1500   0.12777719   0.12175514   0.12422079   0.37375312    0.1472445   0.14437759   0.14159529   0.43321738 
     210   -289317.09         1500   0.12836905   0.12316913    0.1245665   0.37610468   0.15042151   0.14396574   0.14272037   0.43710762 
     220   -289465.26         1500   0.12923407   0.12482097   0.12631196     0.380367    0.1539486    0.1451356   0.14340022   0.44248441 
     230   -289454.58         1500   0.13033675   0.12645754   0.12797296   0.38476724   0.15723319   0.14619254   0.14364079   0.44706652 
     240   -289362.55         1500   0.13133355   0.12783203   0.12948987   0.38865544   0.16025964   0.14697329   0.14490816   0.45214108 
     250   -289266.46         1500   0.13194635   0.12877996   0.13155693   0.39228324   0.16168224   0.14881767   0.14800657   0.45850648 
     260   -289409.83         1500    0.1327496   0.12894891   0.13311755   0.39481606   0.16167419   0.15286854   0.15303139   0.46757412 
     270   -289521.58         1500   0.13398589   0.12857655   0.13301971   0.39558215   0.16203324   0.16071745   0.15976556   0.48251626 
     280   -289624.28         1500   0.13553583   0.12811349   0.13225672   0.39590603   0.16231684   0.17114325    0.1666843   0.50014439 
     290   -289553.62         1500   0.13725315   0.12799186   0.13223122   0.39747623   0.16186669   0.17920927   0.17172792   0.51280388 
     300   -289590.96         1500   0.13896417   0.12819558   0.13526353   0.40242328   0.16209633   0.18376618   0.17245137   0.51831388 
     310    -289586.9    1499.5673   0.14097946   0.12845991   0.13866428   0.40810366   0.16623901   0.18692453    0.1694235   0.52258705 
     320   -289505.88         1500   0.14333088   0.12838753   0.14071595   0.41243436   0.17387653   0.18864253   0.16518612   0.52770518 
     330   -289378.83         1500   0.14509317    0.1279194   0.14373764   0.41675021   0.18241279   0.18699706   0.16118777   0.53059762 
     340   -289324.16         1500   0.14622114    0.1271868   0.14690344   0.42031138   0.18938957   0.18100982   0.15962144   0.53002083 
     350   -289309.57         1500   0.14678582   0.12616106   0.14968032   0.42262719   0.19473835    0.1733241   0.16129721   0.52935966 
     360   -289293.52         1500   0.14639698   0.12510948   0.15218916   0.42369563   0.19983371   0.16837329   0.16447576   0.53268276 
     370   -289230.62         1500   0.14565073    0.1243848   0.15387628   0.42391181   0.20397088   0.16782391   0.16624191   0.53803671 
     380   -289251.83         1500   0.14581018   0.12391472   0.15802423   0.42774912   0.20608874    0.1692382   0.16633053   0.54165748 
     390   -289087.48         1500   0.14664424   0.12390907   0.16332704   0.43388034   0.20630188   0.17379925   0.16770009   0.54780123 
     400   -289012.61         1500   0.14779191   0.12418934   0.16806689   0.44004814   0.20389269   0.17828587   0.16991796   0.55209651 
     410   -289202.64         1500   0.14951516   0.12499846   0.17186541   0.44637903    0.1979899    0.1785498   0.17211108   0.54865079 
     420   -289314.62         1500   0.15049598    0.1260944   0.17533816   0.45192854     0.191067   0.17422872   0.17569462   0.54099034 
     430   -289209.06         1500    0.1503751   0.12778617   0.17829005   0.45645132   0.18685642   0.16892486   0.18170445   0.53748573 
     440   -289175.13         1500   0.14983266   0.13066649   0.18105565   0.46155479   0.18667462   0.16722907   0.18963479   0.54353847 
     450   -289037.26         1500   0.14941795    0.1340992   0.18319603   0.46671318   0.18786998    0.1673815   0.19714278   0.55239426 
     460   -289104.96         1500    0.1493569   0.13763748   0.18511289   0.47210727    0.1864365   0.16934262   0.20378922   0.55956835 
     470   -289102.21    1499.6007   0.14911626   0.14069357   0.18661396   0.47642379   0.18345518   0.17342021   0.20815722   0.56503261 
     480   -289053.92         1500   0.14850748   0.14308833    0.1865872   0.47818301   0.18047292   0.17944635   0.21237597   0.57229525 
     490   -288986.59         1500   0.14743785   0.14436509   0.18507015    0.4768731   0.17944178    0.1861494   0.21778608   0.58337726 
     500   -288921.93         1500   0.14570598   0.14404908   0.18278095     0.472536   0.18041944   0.19128797   0.22242343   0.59413084 
     510   -288904.67         1500   0.14363574   0.14262035   0.18083634   0.46709244   0.18257898   0.19274242   0.22425907   0.59958046 
     520   -288837.53         1500   0.14217512   0.14137175   0.18077635   0.46432323   0.18465183   0.18967263      0.22227   0.59659446 
     530   -288983.83         1500   0.14190072   0.14082854   0.18140828   0.46413754   0.18455622   0.18440814   0.21869779   0.58766215 
     540   -289008.04         1500   0.14278499   0.14075999   0.18137829   0.46492328   0.18055821   0.18022541   0.21574588    0.5765295 
     550   -288942.25         1500   0.14479513   0.14120623   0.18184316   0.46784452   0.17254115   0.17708293   0.21400949   0.56363356 
     560    -289043.4         1500   0.14777692   0.14208684   0.18303365   0.47289742   0.16485844   0.17528044   0.21226991   0.55240879 
     570   -289171.05         1500   0.15065995   0.14360319   0.18343718   0.47770032   0.16123864   0.17636407   0.20757607   0.54517877 
     580   -289078.44         1500   0.15222331   0.14566966   0.18289123    0.4807842   0.16103637   0.18071589   0.20225044    0.5440027 
     590   -288913.63         1500   0.15234537   0.14768587   0.18072893   0.48076017   0.16186542   0.18471896   0.19930306   0.54588744 
     600    -288862.5         1500   0.15092177   0.14987087   0.17763164   0.47842428   0.16183022   0.18670246   0.19989588   0.54842855 
     610   -288884.52         1500   0.14874074   0.15208419   0.17449881   0.47532373   0.16152385   0.18524319   0.20434034   0.55110738 
     620   -288980.95         1500   0.14625258   0.15487716   0.17103584   0.47216559   0.16078045   0.18235876   0.21125724   0.55439644 
     630   -289108.87         1500   0.14393524    0.1584456   0.16775393   0.47013477   0.15945275   0.18010835    0.2184801    0.5580412 
     640   -289180.61         1500   0.14258316   0.16213682   0.16891188   0.47363186   0.15785684   0.17863745   0.22280272     0.559297 
     650   -289100.19         1500   0.14216862   0.16509855   0.17165066   0.47891783   0.15636749   0.17969385   0.22109751   0.55715885 
     660   -288842.89         1500   0.14222475   0.16714997   0.17401486   0.48338958   0.15487964      0.18097   0.21481251   0.55066215 
     670   -288784.49         1500   0.14243157   0.16875806   0.17505191   0.48624154   0.15298132   0.18089051   0.20758288   0.54145472 
     680   -288938.55         1500   0.14216695   0.17079185   0.17518836   0.48814716   0.15134012   0.18330117   0.20240612    0.5370474 
     690   -289073.11         1500   0.14172957   0.17325485   0.17612542   0.49110984   0.15116062   0.18824447   0.20131203   0.54071711 
     700   -289037.45         1500    0.1414178   0.17622642   0.17571945   0.49336367   0.15445751   0.19385252   0.20276785   0.55107788 
     710   -288956.35         1500   0.14199657     0.179111   0.17756921   0.49867678   0.16050704   0.19903674   0.20410411   0.56364789 
     720   -288893.16         1500   0.14394743   0.18117954   0.17979511   0.50492207   0.16903127    0.2032361   0.20566296   0.57793033 
     730   -288833.64         1500   0.14704575   0.18172757   0.18266305   0.51143638   0.17712916   0.20668609   0.20716262   0.59097787 
     740   -288688.06         1500   0.15183282   0.18097888   0.18695752   0.51976922   0.18041276   0.20897235   0.20745291   0.59683802 
     750   -288703.35         1500   0.15823228   0.17960173   0.19303448   0.53086849   0.18016724   0.20957014   0.20677749   0.59651486 
     760   -288960.63         1500   0.16498073   0.17849244   0.20097619   0.54444935    0.1803711   0.20845377   0.20673566   0.59556054 
     770   -288967.49    1500.7427   0.17092852   0.17686651   0.20775993   0.55555497    0.1830151   0.20628604   0.20955247   0.59885361 
     780   -288710.96         1500   0.17565961   0.17539756   0.21316415   0.56422132   0.18672649   0.20404961   0.21315522   0.60393133 
     790   -288572.69         1500   0.17931946   0.17469468   0.21848817    0.5725023   0.18872361   0.20000631   0.21564413   0.60437405 
     800   -288692.95         1500   0.18311424   0.17449257   0.22360129   0.58120811   0.18837424   0.19406141   0.21780219   0.60023784 
     810   -288794.32         1500   0.18806956   0.17506911   0.22701106   0.59014973   0.18754002   0.18969987   0.21893037   0.59617025 
     820   -288823.59         1500   0.19432885   0.17665042   0.22839049   0.59936976   0.18732257   0.19022012    0.2196943     0.597237 
     830   -288756.81         1500   0.20038978   0.17875992   0.22819634   0.60734604   0.18775893   0.19533114   0.22154485   0.60463491 
     840   -288603.21         1500   0.20524074    0.1809101   0.22787362   0.61402446   0.19033284   0.20268155   0.22484883   0.61786322 
     850    -288572.8         1500   0.20867881    0.1829446   0.22840052   0.62002393   0.19719311   0.21021665   0.22816328   0.63557304 
     860   -288393.94         1500   0.21059953   0.18465716    0.2295132    0.6247699   0.20977369   0.21697086   0.23137194    0.6581165 
     870   -288416.77         1500   0.21099249   0.18639281   0.23055831   0.62794361   0.22576958    0.2219612   0.23578066   0.68351144 
     880   -288435.49         1500   0.21065212   0.18935134   0.23400496   0.63400842    0.2405145   0.22351157   0.24037919   0.70440526 
     890   -288312.86         1500   0.21085446   0.19343887   0.23407431   0.63836765   0.25074527    0.2208693   0.24367077   0.71528534 
     900   -288266.49         1500   0.21217569   0.19755566   0.23200674   0.64173809   0.25522292   0.21615837   0.24718322   0.71856451 
     910   -288212.32         1500     0.215342   0.20085129   0.22905537   0.64524866   0.25467146   0.21361147   0.25511652   0.72339944 
     920   -288308.85         1500   0.22070773   0.20209143   0.22579431   0.64859347   0.25002547   0.21579708   0.26478322   0.73060577 
     930   -288413.68         1500   0.22769672   0.20172479   0.22403775   0.65345925   0.24489864   0.22074897   0.27240505   0.73805266 
     940   -288513.43         1500   0.23522224   0.20050965    0.2237705   0.65950238   0.24158536   0.22587738   0.27891699   0.74637973 
     950   -288439.54         1500   0.24232441   0.19897572   0.22425431   0.66555444   0.23971721   0.23009352   0.28680019   0.75661091 
     960    -288262.9         1500   0.24757602   0.19723754   0.22509018   0.66990374   0.23820442   0.23282817   0.29634033   0.76737293 
     970   -288292.86         1500   0.25025339   0.19557931   0.22558407   0.67141677   0.23793064    0.2328125    0.3057922   0.77653534 
     980   -288319.12         1500   0.25172141   0.19482875   0.22603282   0.67258298   0.24165937   0.22985603   0.31051817   0.78203356 
     990   -288353.05         1500    0.2530255   0.19571558   0.22502859   0.67376968   0.24785234   0.22757652   0.30846027   0.78388913 
    1000   -288328.98         1500   0.25465936   0.19848457   0.22321482   0.67635874   0.25256923    0.2274685   0.30221912   0.78225685 
    1010   -288250.52         1500   0.25592084   0.20226243   0.22216713    0.6803504   0.25391214   0.22915712   0.29622077   0.77929003 
    1020   -288180.85         1500   0.25694135    0.2065325   0.22286383   0.68633768   0.25058015   0.23374343   0.29281264   0.77713622 
    1030   -288256.92         1500   0.25778243   0.20979705   0.22474943   0.69232892   0.24462759    0.2391701    0.2914162   0.77521389 
    1040   -288456.21         1500   0.25813598   0.21120916   0.22959207   0.69893721   0.24070716   0.24246134   0.29033536   0.77350385 
    1050   -288638.09         1500   0.25754069   0.21109755   0.23575002   0.70438826   0.24034798   0.24339908   0.28924784    0.7729949 
    1060   -288606.66         1500    0.2560132   0.21036938    0.2412979   0.70768049   0.24328975   0.24178606   0.29027217   0.77534798 
    1070   -288553.13         1500   0.25424607   0.20901415   0.24497831   0.70823854   0.24907552   0.23806571   0.29360915   0.78075037 
    1080   -288447.52         1500   0.25247901   0.20672306   0.24493688   0.70413895   0.25689518   0.23484803   0.29848999   0.79023321 
    1090    -288454.3    1500.9521   0.25152228   0.20458733   0.24415993   0.70026954   0.26432189   0.23357721   0.30355359    0.8014527 
    1100   -288689.94         1500   0.25180986    0.2035613   0.24315986   0.69853102   0.27095093   0.23267956   0.31019082   0.81382132 
    1110   -288854.89         1500   0.25315584   0.20420156   0.24384184   0.70119924   0.27533176   0.23258354   0.31911006   0.82702536 
    1120   -288819.16         1500   0.25491972   0.20578099   0.24432801   0.70502872   0.27502042   0.23435448   0.32719039   0.83656529 
    1130   -288697.47         1500   0.25665541   0.20743503   0.24417883   0.70826927   0.27113612   0.23755753   0.32982787   0.83852152 
    1140   -288543.94         1500   0.25752779   0.20883076   0.24696112   0.71331967   0.26684259   0.24297425   0.32580321   0.83562005 
    1150   -288403.95         1500   0.25761446   0.20919383   0.25160528   0.71841356   0.26478748   0.24868153   0.31813324   0.83160225 
    1160   -288495.44         1500   0.25795919   0.20831185   0.25584814   0.72211918   0.26569095   0.25257886   0.30978593   0.82805574 
    1170   -288643.96         1500   0.25917079   0.20606287   0.25967704   0.72491069    0.2676054   0.25336426   0.30327536   0.82424502 
    1180   -288460.27         1500   0.26058571   0.20271325   0.26226572   0.72556468   0.26880475   0.25231326   0.30218204   0.82330006 
    1190   -288328.02         1500   0.26229498   0.19839567   0.26354901   0.72423965   0.26969352   0.25013283   0.30830918   0.82813553 
    1200   -288366.02         1500   0.26426217   0.19464634   0.26407301   0.72298152   0.27216918    0.2477002    0.3191478   0.83901718 
    1210   -288423.23         1500   0.26641526   0.19219186   0.26535572   0.72396284   0.27599932    0.2473616   0.32689961   0.85026053 
    1220   -288409.58         1500   0.26866181   0.19138836   0.26864659   0.72869675    0.2792027    0.2503542   0.32683391   0.85639081 
    1230   -288546.75         1500   0.27098284   0.19170798   0.27224609   0.73493692    0.2795805   0.25508253   0.32016319   0.85482621 
    1240   -288627.53         1500   0.27361663   0.19226636   0.27747829   0.74336129   0.27972654   0.25900065    0.3100736   0.84880079 
    1250   -288508.02         1500   0.27646981    0.1929987   0.28296617   0.75243467   0.28136021   0.25954295   0.29954063    0.8404438 
    1260   -288403.75         1500   0.27925308   0.19436735    0.2868444   0.76046483   0.28355806   0.25616938   0.29113635    0.8308638 
    1270   -288366.34         1500   0.28125666   0.19733664   0.28819967   0.76679298   0.28638509    0.2483589   0.28877261    0.8235166 
    1280   -288477.32         1500   0.28208815   0.20172279   0.28708858   0.77089952   0.28781067   0.23850112     0.291723   0.81803478 
    1290   -288486.96         1500   0.28215227   0.20690026   0.28515012   0.77420265    0.2877973   0.23134149   0.29760069   0.81673948 
    1300   -288543.31         1500   0.28219477   0.21188921   0.28427749   0.77836147   0.28704874    0.2298773   0.30419629   0.82112233 
    1310   -288480.45         1500   0.28238081   0.21582207   0.28655202   0.78475489   0.28546819    0.2327844   0.31149302   0.82974561 
    1320   -288271.14         1500   0.28291975   0.21854048   0.28919173   0.79065195   0.28344043   0.23662095    0.3184756   0.83853698 
    1330   -288063.15         1500   0.28353838   0.22008468   0.29238015   0.79600321   0.27968782   0.24147445   0.32227972     0.843442 
    1340   -287888.73         1500   0.28438313   0.22053315   0.29679544   0.80171171   0.27358038   0.24663468   0.32306457   0.84327963 
    1350    -287964.5         1500   0.28577644   0.22004728   0.30278573   0.80860945   0.26854414   0.25173169   0.32321298   0.84348882 
    1360   -288114.33         1500   0.28716138   0.21885621   0.30825458   0.81427217   0.26890881    0.2563356   0.32388562   0.84913003 
    1370   -288149.56         1500   0.28787716   0.21735735    0.3124742   0.81770871   0.27442283   0.26046163   0.32514642   0.86003087 
    1380   -288183.58         1500   0.28824737    0.2158781   0.31460862   0.81873409   0.28017688   0.26417679    0.3254636   0.86981727 
    1390   -288260.58         1500   0.28778056   0.21462875   0.31719008   0.81959938   0.28481444   0.26559535   0.32412511   0.87453489 
    1400   -288241.59         1500   0.28756976   0.21453506   0.32019866   0.82230349   0.28883903   0.26282947   0.32362828   0.87529677 
    1410   -288234.86    1499.0272   0.28822363    0.2159099    0.3190672   0.82320072   0.29089834   0.25623425   0.32651753   0.87365012 
    1420    -288307.1         1500   0.29007168    0.2184072   0.31828392   0.82676279   0.28935288   0.24849365   0.33202919   0.86987573 
    1430   -288395.77         1500   0.29257767    0.2208554   0.31640221   0.82983528   0.28400148   0.24298432   0.33921606   0.86620186 
    1440   -288273.17         1500   0.29531508   0.22331593   0.31505425   0.83368525   0.27661196   0.24221089   0.34651311   0.86533596 
    1450   -288262.53         1500   0.29798384   0.22639842   0.31593454    0.8403168   0.26969506   0.24461537   0.35372313   0.86803355 
    1460   -288266.38    1500.3171    0.2999243   0.23016133   0.31781872   0.84790435   0.26682263   0.24818374   0.35744837   0.87245474 
    1470   -288242.67         1500   0.30074345   0.23382419   0.32116287   0.85573051   0.26884122   0.25143206   0.35339385   0.87366713 
    1480   -288301.43         1500   0.29999321   0.23706271    0.3244478   0.86150372   0.27557033    0.2552069   0.34326746   0.87404469 
    1490   -288317.28         1500   0.29741096   0.24000418   0.32652684   0.86394198   0.28648529   0.25914733   0.33318431   0.87881693 
    1500   -288322.87    1500.5883   0.29402064   0.24290262   0.33233728   0.86926053   0.29945839   0.26101197    0.3244957   0.88496607 
    1510    -288233.7         1500   0.29049335   0.24618316   0.33915994   0.87583645   0.31190255   0.25794353   0.31954524   0.88939132 
    1520   -288236.94    1500.4528   0.28741249   0.25040494   0.34324557     0.881063   0.32176281   0.25159938   0.31851053   0.89187272 
    1530   -288367.13         1500   0.28575661   0.25493977   0.34431393   0.88501031   0.32693568   0.24582028   0.32044788   0.89320383 
    1540   -288430.64         1500   0.28626256    0.2591367    0.3444223   0.88982155   0.32686471   0.24492145   0.32460394    0.8963901 
    1550   -288376.83         1500   0.28883116   0.26230407   0.34693599   0.89807122   0.32570088   0.25012601   0.32910608   0.90493298 
    1560   -288193.06         1500   0.29324141     0.263514   0.35207946   0.90883487   0.32593739   0.25958077   0.33027852   0.91579668 
    1570   -288103.52         1500   0.29941232   0.26309278   0.35687661   0.91938171   0.32652084   0.26993164   0.32633407   0.92278655 
    1580   -288239.78         1500    0.3065501   0.26221025   0.35765166   0.92641201   0.32695439   0.27808325   0.32065803   0.92569568 
    1590   -288296.15         1500   0.31363074    0.2612637   0.35241682   0.92731125   0.32783904   0.28460919   0.31972804   0.93217627 
    1600   -288169.58         1500   0.32098299    0.2607169   0.34460151    0.9263014   0.33025906    0.2886851   0.32265881   0.94160297 
    1610   -288065.56         1500    0.3284241   0.26060445   0.34335236   0.93238091   0.33441724   0.28825574   0.32871034   0.95138332 
    1620   -288065.58    1499.8298   0.33466237    0.2602921   0.34302074    0.9379752   0.33985672   0.28494418   0.33709442   0.96189531 
    1630    -287934.8         1500   0.33824625   0.25954646   0.34412125   0.94191396   0.34678147   0.28285063   0.34804956   0.97768167 
    1640   -287951.05         1500   0.33986414   0.25908542   0.34669917   0.94564873   0.35318894   0.28360775   0.36018682   0.99698351 
    1650   -288036.25         1500   0.34000716   0.25868886   0.34927112   0.94796714   0.35556681   0.28812467   0.36952865    1.0132201 
    1660    -288078.7         1500   0.33952113   0.25851573   0.35307144    0.9511083   0.35333153   0.29660295   0.37338117    1.0233156 
    1670   -288102.28         1500   0.33939657   0.25970372   0.35814379   0.95724407   0.34921633   0.30575029   0.37133284    1.0262995 
    1680   -288011.11         1500   0.34011605   0.26277737   0.36353166   0.96642508   0.34532943   0.31074224   0.36610628    1.0221779 
    1690   -287997.59         1500   0.34176436   0.26678953   0.36841741    0.9769713   0.34248062   0.30994501   0.35940525    1.0118309 
    1700   -288302.06         1500    0.3428895   0.27159922   0.37181387   0.98630259   0.34201165   0.30740113   0.35448368    1.0038965 
    1710    -288444.3         1500   0.34342209   0.27607258   0.37382136   0.99331603   0.34560919   0.30608038   0.35191515    1.0036047 
    1720   -288393.64         1500   0.34311634   0.27928605   0.37485119   0.99725358   0.35087304    0.3082786   0.35385632     1.013008 
    1730   -288436.98         1500   0.34196324   0.28208128   0.37600204    1.0000466   0.35619352   0.31489326   0.35816556    1.0292523 
    1740   -288265.55         1500   0.34091224    0.2858547    0.3754085    1.0021754   0.36107162   0.32594869    0.3633576    1.0503779 
    1750   -288198.65         1500   0.34094071   0.28903448   0.37145688    1.0014321   0.36534683   0.33784337   0.36668694    1.0698771 
    1760   -288225.98         1500   0.34308224   0.29197203   0.36524197    1.0002962   0.36945211   0.35012932   0.36794794    1.0875294 
    1770   -288192.99         1500   0.34717351   0.29543277   0.35666071   0.99926699    0.3736545   0.35994845   0.36712754    1.1007305 
    1780   -288200.44    1500.9289    0.3531833     0.299879   0.35156634    1.0046286   0.37499108     0.364107   0.36352347    1.1026216 
    1790    -288120.3         1500   0.36016061   0.30432805   0.34983878    1.0143274   0.37011291   0.36296062   0.35906377    1.0921373 
    1800    -288065.3         1500   0.36772708   0.30865555   0.34964787    1.0260305   0.35865774   0.35729987   0.35546355    1.0714212 
    1810   -288051.99         1500   0.37557137   0.31244704   0.35056755     1.038586   0.34483235   0.34912729   0.35190996    1.0458696 
    1820    -288139.7         1500   0.38317167   0.31485346    0.3522724    1.0502975    0.3351374   0.34162151   0.34830914     1.025068 
    1830   -288392.19         1500   0.38939413   0.31600587   0.35390984    1.0593098   0.33371529   0.33824846   0.34479028     1.016754 
    1840   -288406.98         1500   0.39240729   0.31570617   0.35514074    1.0632542   0.33718308    0.3385484   0.34064211    1.0163736 
    1850      -288256         1500   0.39240382   0.31436814    0.3566663    1.0634383   0.34073599   0.34024953   0.33524948     1.016235 
    1860   -288154.46         1500   0.38997229   0.31298632   0.35996092    1.0629195    0.3450403   0.34369637   0.32974351    1.0184802 
    1870   -288175.33         1500   0.38588586   0.31269744   0.36449799    1.0630813   0.35116318   0.34953883   0.32809691    1.0287989 
    1880   -288159.62         1500   0.38005543   0.31397998   0.36910523    1.0631406   0.35700337   0.35680944   0.33176363    1.0455764 
    1890   -288221.28         1500   0.37343797   0.31641324   0.36709438    1.0569456   0.36117411   0.36266264   0.34162712    1.0654639 
    1900   -288283.86         1500   0.36765321   0.31967768    0.3643034    1.0516343   0.36411248   0.36529891   0.35492852    1.0843399 
    1910   -288323.56         1500   0.36321294   0.32302065   0.37029342     1.056527   0.36759522   0.36497846    0.3669453     1.099519 
    1920   -288232.47         1500   0.36057042   0.32630818   0.37713236     1.064011   0.37001497   0.36227242   0.37378009    1.1060675 
    1930   -288123.03         1500   0.35954135   0.32874726   0.38341951    1.0717081   0.36984073    0.3583122   0.37390545    1.1020584 
    1940    -288059.6         1500   0.36029553   0.32943284   0.38816588    1.0778943   0.36750552   0.35362875   0.36936121    1.0904955 
    1950   -287930.41         1500   0.36261838   0.32788576   0.39184454    1.0823487   0.36462462   0.34942399   0.36368411    1.0777327 
    1960   -287866.37         1500   0.36618932   0.32512305   0.40174378    1.0930562   0.36282337   0.34771193   0.35731429    1.0678496 
    1970   -288010.54         1500   0.37068043   0.32113659   0.41030662    1.1021236   0.36055038   0.34709678   0.35253124    1.0601784 
    1980   -288223.95         1500   0.37478221   0.31702508   0.41663657    1.1084439   0.35830155   0.34424172   0.35247243    1.0550157 
    1990   -288439.82         1500   0.37801697   0.31390964   0.42089383    1.1128204   0.35863866   0.33834714    0.3580234    1.0550092 
    2000    -288491.4         1500   0.38013059     0.311905   0.42426555    1.1163011   0.35923782    0.3307155   0.36508174    1.0550351 
    2010   -288428.53         1500   0.38192993   0.31094892   0.42704211     1.119921    0.3616533     0.321823   0.37033137    1.0538077 
    2020   -288285.45         1500   0.38355923   0.31000987   0.42338243    1.1169515   0.36849886   0.31370807   0.37140987    1.0536168 
    2030   -288157.84         1500   0.38508954   0.30877292   0.41470435    1.1085668    0.3773177   0.30951046   0.37037472    1.0572029 
    2040   -288120.92         1500   0.38614441   0.30771305   0.40491806    1.0987755   0.38252575   0.30969629   0.37060632    1.0628284 
    2050   -288160.74         1500   0.38692929   0.30736513   0.39700288    1.0912973   0.38142146   0.31250738     0.376156    1.0700848 
    2060   -288213.27         1500   0.38735742   0.30749683   0.39184955    1.0867038   0.37609965   0.31635721   0.38559504    1.0780519 
    2070   -288308.98         1500   0.38773396   0.30759988   0.38863758    1.0839714   0.37187713   0.31990039   0.39573012    1.0875076 
    2080   -288334.94         1500   0.38804864   0.30784747   0.38685419    1.0827503   0.37133291   0.32243652   0.40256792    1.0963373 
    2090   -288339.26    1500.5201   0.38861203   0.30898181   0.38554732    1.0831412    0.3716896   0.32515409   0.40522143    1.1020651 
    2100   -288329.81    1499.5687   0.38867833   0.31091521   0.38459774    1.0841913   0.37116383    0.3288736   0.40750572    1.1075432 
    2110   -288447.56         1500   0.38842039     0.313214    0.3846883    1.0863227   0.37127546    0.3325227    0.4115126    1.1153108 
    2120   -288468.82         1500   0.38940216   0.31688507   0.38664296    1.0929302   0.37602485   0.33438341   0.41657963    1.1269879 
    2130   -288396.23         1500   0.39203616    0.3216066   0.39052275    1.1041655   0.38383828   0.33433847   0.42239319    1.1405699 
    2140   -288247.13         1500   0.39555156   0.32543696   0.39526911    1.1162576   0.38977961   0.33216035   0.42939719    1.1513371 
    2150   -288154.69         1500   0.39954834   0.32573855   0.40081713     1.126104   0.39349778   0.32739712   0.43843619    1.1593311 
    2160   -288248.84         1500   0.40415275   0.32309724   0.40801026    1.1352603   0.39589996   0.32318064    0.4468367    1.1659173 
    2170   -288311.65         1500   0.40862406   0.31987432   0.41661358     1.145112   0.39717971   0.32343661   0.44912697    1.1697433 
    2180   -288245.15         1500   0.41183175   0.31731514    0.4264263    1.1555732   0.40084517   0.33167867   0.44458407    1.1771079 
    2190   -288163.57         1500   0.41288187   0.31546483   0.43828014    1.1666268   0.40353059   0.34129932   0.44041618    1.1852461 
    2200   -288206.78         1500   0.41257458     0.314304   0.45019714    1.1770757   0.40558772   0.34577107   0.44237259    1.1937314 
    2210   -288308.27         1500   0.41039629   0.31390577   0.46078822    1.1850903    0.4076285   0.34583874   0.44712998    1.2005972 
    2220   -288264.93         1500   0.40659902    0.3142725   0.46965426    1.1905258   0.40861913   0.34596465   0.45007431    1.2046581 
    2230   -288081.06         1500   0.40214284   0.31467573   0.47462506    1.1914436   0.40800873   0.34793807   0.44970297    1.2056498 
    2240   -288135.17         1500   0.39754092   0.31567948   0.47534523    1.1885656     0.406733    0.3521549   0.44680469    1.2056926 
    2250    -288152.9         1500   0.39395341   0.31702798   0.47405156    1.1850329    0.4050083   0.35860138   0.44364551    1.2072552 
    2260   -288060.12         1500   0.39151117   0.31724651   0.47287189    1.1816296   0.40147361   0.36599171   0.44106779    1.2085331 
    2270   -287986.51         1500   0.38903789   0.31582643   0.47204638    1.1769107   0.39641208   0.37321124   0.43826261    1.2078859 
    2280   -288088.48         1500   0.38520808    0.3140022   0.47191251    1.1711228    0.3944249   0.37903749   0.43712083    1.2105832 
    2290   -288164.31         1500   0.37982269   0.31337888    0.4716379    1.1648395   0.39837212   0.38404298   0.43835942    1.2207745 
    2300   -288183.09         1500   0.37431274   0.31437055   0.47149097    1.1601743   0.40567608   0.38819121   0.44007396    1.2339412 
    2310   -288081.88         1500   0.37026459   0.31699771   0.46836172     1.155624   0.41319782   0.38810141   0.44280127    1.2441005 
    2320   -288142.07         1500   0.36919551   0.32142889   0.46256071    1.1531851   0.41999043    0.3846011   0.44684416    1.2514357 
    2330   -288204.09         1500   0.37134268   0.32632052   0.45634326    1.1540065   0.42650845   0.38182661   0.45053311    1.2588682 
    2340   -288133.07         1500   0.37603039   0.33107313   0.45185861    1.1589621   0.43151335   0.38124357   0.45260084    1.2653578 
    2350   -288155.83         1500   0.38223195   0.33566579   0.44933202    1.1672298   0.43282539   0.38383858   0.45166392    1.2683279 
    2360   -288216.06         1500   0.38929641   0.33936086    0.4479755    1.1766328   0.43023867   0.38861863   0.44665277    1.2655101 
    2370    -288221.1    1500.6492   0.39720816   0.34211696   0.44755174    1.1868769   0.42503013    0.3928095   0.43752377    1.2553634 
    2380   -288283.07         1500   0.40472344   0.34438453   0.45094245    1.2000504   0.41931438   0.39533134   0.42635302    1.2409987 
    2390   -288271.92         1500    0.4113307   0.34629965    0.4563669    1.2139972   0.41612113   0.39456739   0.42049775    1.2311863 
    2400   -288234.34         1500    0.4165119   0.34870507   0.46070143    1.2259184   0.41824198   0.39140526   0.42161471    1.2312619 
    2410   -288226.19         1500   0.41935153   0.35151616   0.46123737    1.2321051   0.42440209     0.387749   0.42716331    1.2393144 
    2420   -288225.53    1499.8504   0.42085379   0.35422337   0.46072208    1.2357992   0.42958259   0.38450456   0.43424809    1.2483353 
    2430   -288308.46         1500   0.42136596   0.35754607   0.46443691    1.2433489   0.43235737   0.38211744   0.43995682    1.2544316 
    2440   -288283.58         1500   0.42193594   0.36210051   0.46678934    1.2508258   0.43390073   0.38071363   0.44491901    1.2595334 
    2450   -288152.39         1500   0.42305792    0.3669487   0.46916338      1.25917    0.4336438   0.38228191   0.44890256    1.2648283 
    2460   -288047.33         1500    0.4244245   0.37264039   0.47001871    1.2670836   0.43027175   0.38697881    0.4491267    1.2663773 
    2470   -288056.68         1500   0.42725113   0.38030811   0.46999674     1.277556   0.42455634    0.3926272   0.44341569    1.2605992 
    2480   -288073.44         1500   0.43216341   0.38945116   0.46977732    1.2913919   0.42070534   0.39866348   0.43505942    1.2544282 
    2490   -288057.69         1500   0.43850387   0.39866969   0.46788599    1.3050596   0.42219552   0.40278587   0.42655765     1.251539 
    2500   -287989.52         1500    0.4463513   0.40628453   0.46481691    1.3174527   0.42489365   0.40362094   0.42106212    1.2495767 
    2510    -287889.6         1500    0.4533903   0.41303327   0.46089354    1.3273171   0.42647549   0.40413254   0.42201842    1.2526265 
    2520   -287887.98    1499.7799   0.45810048   0.41910673   0.45486768    1.3320749   0.42702225   0.40647736   0.42838927    1.2618889 
    2530   -287804.46         1500   0.46003627   0.42372497   0.44618721    1.3299484   0.42894598   0.40886333   0.43472939    1.2725387 
    2540   -287783.65         1500   0.45913509   0.42556361   0.43748274    1.3221814   0.43356404   0.40877829   0.43617199    1.2785143 
    2550   -287929.15         1500   0.45678354   0.42443636   0.43462686    1.3158468   0.43982459   0.40629521   0.43211246    1.2782323 
    2560   -288171.02         1500   0.45412732   0.42068385   0.43442165    1.3092328   0.44184973    0.4053864   0.42606713    1.2733033 
    2570    -288296.8         1500   0.45121689   0.41470211   0.43254185    1.2984608   0.43954277   0.40841848   0.42160648    1.2695677 
    2580   -288372.85         1500   0.44895205   0.40811054   0.43138857    1.2884512   0.43535703   0.41451329   0.41937136    1.2692417 
    2590   -288494.66         1500    0.4477773   0.40208537   0.43180885    1.2816715   0.43319067   0.42238016   0.41878736    1.2743582 
    2600   -288514.09         1500    0.4477201    0.3969574   0.43168853     1.276366   0.43381482   0.43112547   0.42008777    1.2850281 
    2610    -288322.3         1500   0.44836237   0.39247454   0.43157559    1.2724125   0.43469605   0.44124373   0.42479055    1.3007303 
    2620   -288079.45         1500   0.44972209   0.38863302   0.43205304    1.2704082   0.43524626   0.44946155   0.43285853    1.3175663 
    2630   -287926.84         1500   0.45155744   0.38498534   0.43423246    1.2707752   0.43570822   0.45303803   0.44071491    1.3294612 
    2640   -288014.65         1500   0.45338762   0.38112271   0.43565773    1.2701681   0.43294382    0.4550709    0.4468102    1.3348249 
    2650   -288070.14         1500   0.45443219   0.37712001   0.43570776      1.26726   0.42776935   0.45668014   0.45283794    1.3372874 
    2660   -288005.82         1500   0.45456493   0.37248817   0.43557709    1.2626302   0.42631028   0.45745819   0.45842913    1.3421976 
    2670   -288084.31         1500   0.45357698   0.36858306   0.43597407    1.2581341   0.43417425   0.45911362    0.4595048    1.3527927 
    2680   -288268.82         1500   0.45168985   0.36548542   0.43585503    1.2530303   0.44724763   0.46104235    0.4553273    1.3636173 
    2690   -288255.96         1500   0.44841556   0.36295739   0.43564581    1.2470188    0.4584833   0.46446647   0.45010531    1.3730551 
    2700   -288330.09         1500   0.44489214   0.36105809   0.43681349    1.2427637   0.46622482   0.46767744   0.44471483    1.3786171 
    2710   -288388.86         1500   0.44267437   0.35971796   0.43755714    1.2399495   0.47216543   0.46487664   0.44416178    1.3812038 
    2720      -288285         1500   0.44270082   0.35841053   0.43609176    1.2372031   0.47491768   0.45356951   0.44899844    1.3774856 
    2730   -288027.23         1500   0.44506391   0.35666214   0.43295499     1.234681   0.47389584   0.43993754   0.45596959     1.369803 
    2740   -288029.31    1500.1371   0.44921159   0.35353006   0.42858527    1.2313269   0.46845638   0.43052367   0.46122934    1.3602094 
    2750   -288066.24         1500   0.45346677   0.35031955   0.42381477    1.2276011   0.45983232   0.42859615   0.46240073    1.3508292 
    2760    -288155.2         1500   0.45749979   0.34830209   0.42144883    1.2272507   0.45243442   0.43089657   0.46055537    1.3438864 
    2770   -288295.72         1500   0.46063475   0.34740129   0.42315358    1.2311896   0.44984611   0.43166423   0.45815613    1.3396665 
    2780   -288288.03    1499.1095   0.46203806   0.34786552   0.42586371    1.2357673   0.45112252   0.43123561   0.45590139    1.3382595 
    2790   -288266.79         1500   0.46262529    0.3492256   0.42823391    1.2400848   0.45585198   0.43272268   0.45546534      1.34404 
    2800   -288316.98         1500   0.46320347   0.35105781   0.42950946    1.2437707   0.46284083   0.43505497   0.45750295    1.3553988 
    2810      -288517         1500   0.46330976   0.35296988   0.42972294    1.2460026   0.46704724   0.43507943   0.46395564    1.3660823 
    2820   -288434.04         1500   0.46351392    0.3551964   0.43104213    1.2497524   0.46827296   0.43463424   0.47474137    1.3776486 
    2830   -288167.98         1500   0.46343658   0.35714996   0.43460931    1.2551959   0.46778703   0.43802816   0.48578609    1.3916013 
    2840   -287914.98         1500   0.46320878   0.35868742   0.44280386    1.2647001   0.46579548   0.44729216   0.49119781    1.4042855 
    2850   -287935.16         1500   0.46344165   0.36002373   0.45494301    1.2784084   0.46200898   0.46004591   0.48772873    1.4097836 
    2860   -287933.49    1499.7892   0.46373871   0.36077105   0.46617637    1.2906861   0.45609196   0.47317388   0.47761172    1.4068776 
    2870   -288012.69         1500   0.46428936   0.36173868   0.47487119    1.3008992   0.45015753    0.4829835   0.46734127    1.4004823 
    2880   -288101.74         1500   0.46582931   0.36351029    0.4830991    1.3124387   0.44715314   0.48737821   0.46056254    1.3950939 
    2890   -288125.03         1500   0.46823861   0.36492536   0.48897112    1.3221351   0.44985345   0.48103639   0.45864712     1.389537 
    2900    -288167.3         1500   0.47170915   0.36667384   0.49270637    1.3310894   0.45609074   0.46693927   0.46084806    1.3838781 
    2910   -288156.18         1500   0.47576675   0.36909924   0.49538436    1.3402504   0.46307796   0.45306301    0.4649467    1.3810877 
    2920   -288238.32         1500   0.48001662   0.37178261   0.49873182     1.350531   0.46982578   0.44507086   0.46880527    1.3837019 
    2930   -288368.92         1500   0.48516548   0.37444218   0.50783685    1.3674445   0.47344224   0.44526025   0.47184496    1.3905475 
    2940   -288416.78         1500   0.49051011   0.37788524   0.51696123    1.3853566   0.47525214   0.45070299   0.47447259    1.4004277 
    2950   -288365.41         1500   0.49578832   0.38256777   0.52455399    1.4029101   0.47482134   0.45858582   0.47797997    1.4113871 
    2960   -288259.56         1500   0.50222464   0.38705294   0.53257569    1.4218533    0.4754404   0.47007046   0.48632306    1.4318339 
    2970   -288035.63         1500   0.50885235   0.39026718   0.53700182    1.4361213   0.47982404   0.48240739   0.49743032    1.4596618 
    2980    -287798.9         1500   0.51457248   0.39207465   0.54060166    1.4472488   0.48858212   0.49276133   0.51045497    1.4917984 
    2990   -287774.68         1500   0.51878522   0.39334243   0.54824077    1.4603684   0.49972322   0.49768271   0.52447907     1.521885 
    3000   -287734.02         1500   0.52053821   0.39541734   0.55620136    1.4721569   0.51042736   0.49467237   0.53775886    1.5428586 
    3010   -287649.61         1500    0.5194228   0.39888681   0.56432241     1.482632   0.51902673   0.48747905   0.54733539    1.5538412 
    3020   -287750.85         1500    0.5155637   0.40252833   0.57011778    1.4882098   0.52210187   0.47817734   0.54829069    1.5485699 
    3030   -288165.29         1500   0.51073238    0.4054013   0.57310768    1.4892413   0.51849179   0.47445532   0.54226497    1.5352121 
    3040   -288385.38         1500    0.5048884   0.40737116    0.5743276    1.4865872   0.51113171   0.47860046   0.53687041    1.5266026 
    3050   -288482.78         1500   0.49824673   0.40951723   0.57292278    1.4806867   0.50155097   0.48646207    0.5382701    1.5262831 
    3060   -288458.75         1500   0.49102619   0.41326144   0.57006155    1.4743492   0.49160109   0.49440546    0.5472331    1.5332396 
    3070   -288412.13         1500   0.48341304    0.4175796   0.56849276    1.4694854   0.48243563   0.49991923   0.55758621    1.5399411 
    3080   -288324.32         1500   0.47581801   0.42167042   0.56845595    1.4659444   0.47529326   0.50322731   0.56481873    1.5433393 
    3090   -288146.07         1500   0.46862797   0.42586309   0.57110342    1.4655945    0.4722587   0.50347982   0.56951419    1.5452527 
    3100    -288063.8         1500    0.4624717   0.43116497    0.5729753     1.466612   0.47466208   0.50344996   0.57326743    1.5513795 
    3110   -287962.17         1500   0.45808871   0.43708589   0.57497441     1.470149   0.48017888   0.50664353   0.57767467    1.5644971 
    3120    -287790.7         1500   0.45673511   0.44351505   0.57611097    1.4763611   0.48697518   0.51368603   0.58337551    1.5840367 
    3130   -287865.32         1500   0.45868657   0.45117101   0.57746744     1.487325   0.49436859   0.52398656   0.59040099    1.6087561 
    3140   -287889.07         1500   0.46358455   0.45889921   0.57968091    1.5021647   0.50023024    0.5331528   0.59740014    1.6307832 
    3150   -287712.19         1500   0.47026228   0.46490282   0.58293048    1.5180956   0.50085724   0.53630112   0.60129907    1.6384574 
    3160    -287736.4         1500   0.47860571   0.46913936   0.58657727    1.5343223   0.49804782   0.53563752   0.60097903    1.6346644 
    3170   -287850.65         1500   0.48766381   0.47161207   0.59037241    1.5496483   0.49463253   0.53302583   0.59767498    1.6253333 
    3180   -288008.92         1500   0.49636667   0.47263226   0.59292058    1.5619195   0.49061464   0.53022158   0.59498222    1.6158184 
    3190   -287917.07         1500   0.50347618   0.47378926   0.59798042    1.5752459   0.48893701   0.52952175   0.59558418    1.6140429 
    3200   -287869.01         1500   0.50893758   0.47539929   0.60067237    1.5850092   0.48990795   0.53167037   0.59874627    1.6203246 
    3210   -287866.49    1499.6085   0.51362996   0.47756183   0.59969815    1.5908899   0.49560235   0.53633204    0.6021688    1.6341032 
    3220   -287994.42         1500   0.51900864    0.4801056   0.59474907    1.5938633   0.50580991   0.53964845   0.60243493    1.6478933 
    3230   -287958.07         1500   0.52569965   0.48309947   0.59049233    1.5992914   0.51596095   0.54035779   0.59817377    1.6544925 
    3240   -287798.87         1500   0.53285912    0.4875753   0.58804397    1.6084784   0.52173595   0.54194866   0.59302605    1.6567107 
    3250   -287674.69         1500   0.53978294   0.49324578   0.58604065    1.6190694   0.52223135   0.54376723   0.58939115    1.6553897 
    3260   -287630.47         1500   0.54657885   0.49933699   0.58600483    1.6319207   0.52105702   0.54221295   0.58857701     1.651847 
    3270   -287606.17         1500   0.55408048   0.50486082   0.58709648    1.6460378   0.52171682   0.53476821   0.58940528    1.6458903 
    3280   -287809.82         1500   0.56245221    0.5091307   0.58736135    1.6589443   0.52561959   0.52547694   0.58984423    1.6409408 
    3290   -287879.34         1500   0.56997176   0.51267093   0.58684807    1.6694908   0.53224156   0.51891769   0.58895627    1.6401155 
    3300    -287921.8         1500   0.57617313   0.51615952    0.5861626    1.6784953   0.53891155   0.51849606   0.58677411    1.6441817 
    3310    -287916.3    1499.1813   0.58011534   0.51913534   0.58818418    1.6874349   0.54575644    0.5237179   0.58420287    1.6536772 
    3320   -287942.94         1500   0.58141125   0.52172648   0.59286037    1.6959981   0.55453554   0.53484671   0.58061121    1.6699935 
    3330   -288004.18         1500   0.58034994   0.52481482   0.59984121     1.705006   0.56449727   0.55012737   0.57756626    1.6921909 
    3340   -288073.48         1500   0.57766495   0.52851934    0.6074901    1.7136744    0.5743178   0.56474846   0.57539311    1.7144594 
    3350   -287919.94         1500   0.57439904    0.5313335   0.61450619    1.7202387   0.58093392   0.57539864   0.57586096    1.7321935 
    3360   -287851.26         1500   0.57242095   0.53281604    0.6190635    1.7243005   0.58366083   0.58253769    0.5778615      1.74406 
    3370   -287691.78         1500   0.57236843   0.53396628   0.62059226     1.726927   0.58402953   0.58821661   0.58353435    1.7557805 
    3380   -287816.35         1500   0.57365778   0.53506506   0.62029432    1.7290172   0.58266475   0.59189664    0.5925628    1.7671242 
    3390    -287909.5         1500   0.57446469   0.53629907   0.61877931    1.7295431   0.58186734   0.59229153   0.60233549    1.7764944 
    3400   -287858.92         1500   0.57298844   0.53767075   0.61725032    1.7279095   0.58117089   0.59238046   0.61093483    1.7844862 
    3410   -287797.03         1500   0.56820841   0.53944051   0.61580648    1.7234554    0.5798019   0.59371155   0.61464306    1.7881565 
    3420   -287850.72         1500   0.56113062   0.54180022   0.61310895    1.7160398   0.57812867   0.59661799   0.61264321    1.7873899 
    3430   -287742.98         1500   0.55295867   0.54427235   0.61217396     1.709405   0.57598862   0.60032334   0.60983581    1.7861478 
    3440   -287631.58         1500   0.54451211   0.54542639   0.61294793    1.7028864   0.57313248   0.60346442   0.61074027    1.7873372 
    3450   -287686.66         1500    0.5361839   0.54563522   0.61411756    1.6959367   0.56807703   0.60475429   0.61259409    1.7854254 
    3460   -287886.17         1500   0.52753685   0.54528985   0.61609077    1.6889175   0.56083773   0.60184805   0.61016907    1.7728549 
    3470   -288023.37         1500   0.51751138   0.54495867   0.62019375    1.6826638   0.55079087   0.59939555   0.60474405    1.7549305 
    3480   -287968.39         1500   0.50747871   0.54579505   0.62633706    1.6796108   0.54102812   0.60088405   0.59979058    1.7417028 
    3490   -288006.14         1500   0.49917611   0.54810385   0.63414741    1.6814274   0.53640973   0.60831496    0.5950085    1.7397332 
    3500   -287981.24         1500   0.49255463   0.55053084   0.64094335    1.6840288    0.5376101   0.62206154   0.58907152    1.7487432 
    3510   -287981.86    1500.2309   0.48693949   0.55268846    0.6475604    1.6871884   0.54264516   0.63918679   0.58020917    1.7620411 
    3520   -288041.92         1500   0.48255642   0.55536267   0.65203032    1.6899494   0.55182165   0.65442354   0.57104107    1.7772863 
    3530   -288181.73         1500   0.47968465   0.55890571   0.65595297    1.6945433   0.56499594   0.66172023    0.5676805    1.7943967 
    3540   -288164.11         1500   0.47866606   0.56203603   0.66121043    1.7019125   0.57981647   0.66068002   0.57190461    1.8124011 
    3550   -288171.08     1500.757   0.48004005    0.5643398   0.66574553    1.7101254   0.59242674   0.65259766   0.58135897    1.8263834 
    3560   -288139.71         1500   0.48357533   0.56714116   0.66880972    1.7195262   0.59888265   0.64214559   0.59216882    1.8331971 
    3570   -287953.19         1500   0.48813831   0.57131986   0.66866521    1.7281234   0.59906202   0.63375929   0.59777975    1.8306011 
    3580   -287997.55         1500   0.49341641   0.57649679   0.66837822    1.7382914   0.59449899   0.63049566   0.59715863    1.8221533 
    3590    -288100.9         1500   0.49857435   0.58313114   0.67194928    1.7536548   0.58801834   0.63214312   0.59400672    1.8141682 
    3600   -288032.74         1500   0.50278832   0.59143223   0.67842026    1.7726408   0.58093486   0.63710083   0.59174427      1.80978 
    3610   -287974.99         1500   0.50587375   0.60029255    0.6869157     1.793082   0.57706753   0.64700264   0.59242154    1.8164917 
    3620   -287940.18         1500   0.50774695   0.60905134   0.69908652    1.8158848   0.57879354   0.65863417    0.5975991    1.8350268 
    3630   -287981.65         1500   0.50873774    0.6166706   0.71219113    1.8375995   0.58227328   0.66752018   0.60621234    1.8560058 
    3640   -287861.87         1500   0.50930696   0.62284257   0.72423065    1.8563802   0.58542966   0.67236952    0.6158812    1.8736804 
    3650   -287910.82         1500   0.50941096   0.62728584    0.7354007    1.8720975   0.58695675   0.67377087   0.62431369    1.8850413 
    3660   -287963.44         1500   0.50953592   0.62975686   0.74302574    1.8823185   0.58935882   0.67059158   0.62861455    1.8885649 
    3670   -287915.91         1500    0.5085592   0.63098464   0.74452497    1.8840688   0.59594429   0.66617271   0.62652844    1.8886454 
    3680    -287784.1         1500   0.50553589   0.63142992   0.74182933    1.8787951   0.60332295   0.66526581   0.62205502    1.8906438 
    3690   -287832.18         1500   0.50061284    0.6318114   0.73610818    1.8685324   0.61098119   0.66955907   0.62144254    1.9019828 
    3700   -288055.15         1500    0.4942496   0.63188405   0.72850489    1.8546385   0.62127149   0.67544298   0.62289421    1.9196087 
    3710   -288111.04         1500   0.48777327   0.63151552   0.72096056    1.8402494   0.63441215    0.6797562   0.62386486    1.9380332 
    3720   -287965.24         1500   0.48311024   0.63044206   0.71570953    1.8292618   0.64566081   0.68585811   0.62757158    1.9590905 
    3730    -287847.4         1500   0.48142185   0.62809228   0.70994544    1.8194596   0.65122422   0.69597892   0.63452279    1.9817259 
    3740   -287752.71         1500   0.48299114   0.62449726   0.70567123    1.8131596   0.64883692   0.70935154   0.64124786    1.9994363 
    3750    -287678.4         1500   0.48744106   0.61910397   0.70420301     1.810748     0.642349   0.71900947   0.64477734    2.0061358 
    3760    -287621.5         1500   0.49443919   0.61213314   0.70448133    1.8110537   0.63310889   0.72175421   0.64371175    1.9985749 
    3770      -287438         1500   0.50362215   0.60487725   0.70409598    1.8125954   0.61986039   0.71967584   0.63764046    1.9771767 
    3780   -287380.62         1500    0.5140304   0.59892349   0.70122525    1.8141791   0.60940136   0.71391761   0.62645908     1.949778 
    3790   -287341.15         1500   0.52389078   0.59555572   0.69618718    1.8156337   0.60569928   0.70681819   0.61656006    1.9290775 
    3800   -287294.01         1500   0.53141599   0.59472291   0.68993134    1.8160702   0.60799882    0.6998669   0.61149255    1.9193583 
    3810      -287168         1500   0.53528247   0.59537132   0.68661858    1.8172724   0.61642335   0.69543837   0.61280331     1.924665 
    3820   -287139.86         1500   0.53595738   0.59619935   0.68515168    1.8173084   0.62893763   0.69446673   0.62074933    1.9441537 
    3830   -287268.27         1500   0.53514378   0.59598122   0.68412403     1.815249   0.64432596   0.69544597   0.63347333    1.9732453 
    3840   -287353.87         1500   0.53381611    0.5946572   0.68282299    1.8112963   0.65960933   0.69790565   0.64525026    2.0027652 
    3850   -287429.31         1500   0.53333713   0.59236886    0.6804473    1.8061533   0.67412014   0.70001057   0.65532212    2.0294528 
    3860   -287560.84         1500   0.53379955    0.5904227   0.67959876     1.803821    0.6875759   0.69893971   0.66269562    2.0492112 
    3870   -287677.79         1500   0.53488725   0.58949901   0.68251025    1.8068965   0.69967219     0.695287   0.66625227    2.0612115 
    3880   -287783.85         1500   0.53565018   0.58988796   0.68980889     1.815347   0.70613333   0.69633004   0.66680411    2.0692675 
    3890   -287728.89         1500   0.53480992   0.59163084   0.70006626     1.826507   0.70226484   0.70365289   0.66311369    2.0690314 
    3900   -287777.65         1500    0.5333621   0.59425583   0.70727475    1.8348927   0.68888696   0.71385573   0.65728632     2.060029 
    3910    -288001.6         1500    0.5326662   0.59756518   0.70822667    1.8384581   0.67125583   0.72418217   0.65442838    2.0498664 
    3920   -288040.09         1500   0.53308331   0.60097118   0.70366735    1.8377218   0.65737486     0.732247   0.65568613     2.045308 
    3930   -287817.17         1500     0.535053   0.60287781     0.696036    1.8339668    0.6520726   0.73471846   0.65908461    2.0458757 
    3940   -287676.37         1500   0.53933986   0.60316395   0.68967166    1.8321755   0.65505172   0.73085749   0.66230544    2.0482146 
    3950   -287635.71         1500   0.54481919   0.60266036   0.68387321    1.8313528   0.66152911   0.72746077   0.66620114     2.055191 
    3960   -287751.98         1500   0.55112937   0.60128763    0.6827887    1.8352057   0.66840176   0.72827452   0.67235443    2.0690307 
    3970   -287706.89         1500   0.55822611   0.59959482   0.68322289    1.8410438   0.67377992   0.73130128   0.68318552    2.0882667 
    3980    -287639.5         1500   0.56595805   0.59902215    0.6815543    1.8465345   0.67709158   0.73462496   0.69525279    2.1069693 
    3990   -287717.85         1500   0.57408835   0.60017589    0.6786635    1.8529277    0.6787899    0.7380396   0.70223572    2.1190652 
    4000   -287608.88         1500   0.58234746   0.60178535   0.67603986    1.8601727     0.681142   0.73792235   0.70135833    2.1204227 
    4010   -287549.16         1500   0.59075576   0.60186566   0.67927541    1.8718968    0.6877894    0.7325322   0.69937518    2.1196968 
    4020   -287621.33         1500   0.59769862   0.60121811   0.68877572    1.8876924   0.69937122   0.72202072   0.69781283    2.1192048 
    4030   -287729.56         1500   0.60268062     0.599735   0.70168823    1.9041039   0.71729841   0.71057424   0.69375436     2.121627 
    4040   -287746.52         1500   0.60619054   0.59695888    0.7137968    1.9169462   0.73764394   0.70331578   0.68532903    2.1262887 
    4050   -287719.91         1500   0.60911604   0.59371749   0.72187008    1.9247036   0.75129193   0.69964371    0.6728408    2.1237764 
    4060   -287715.31    1499.3873    0.6125988   0.58989223   0.72434806    1.9268391   0.75715463    0.7007154    0.6615523    2.1194223 
    4070   -287856.71         1500   0.61680844   0.58607319   0.71967731    1.9225589   0.75673111   0.70894984   0.65182979    2.1175107 
    4080      -287918         1500   0.62198889    0.5832437   0.70905923    1.9142918    0.7535723   0.72454603   0.64413396    2.1222523 
    4090   -287784.25         1500   0.62813415   0.58223754   0.69622684    1.9065985   0.75491934   0.74173901   0.64307012    2.1397285 
    4100   -287662.48         1500   0.63350619   0.58236796   0.68435985     1.900234   0.76091108   0.75343718   0.64786058    2.1622088 
    4110   -287751.17         1500   0.63685391   0.58303193   0.67823602    1.8981219   0.76803226   0.75588561   0.65985221    2.1837701 
    4120    -287651.4         1500   0.63803359   0.58330517   0.67560304    1.8969418   0.77112304   0.75255969    0.6750343     2.198717 
    4130   -287571.56         1500    0.6372176   0.58364799   0.67576276    1.8966283   0.76987592     0.746721   0.68959369    2.2061906 
    4140   -287620.94         1500   0.63454472   0.58492746   0.67793992    1.8974121   0.76301605   0.74439787   0.70306067    2.2104746 
    4150   -287667.19         1500   0.63090224   0.58777794   0.68351651    1.9021967   0.74977257   0.74607989     0.713948    2.2098005 
    4160   -287731.18         1500    0.6272541   0.59331479   0.69035812     1.910927   0.73618267   0.74728408   0.72051106    2.2039778 
    4170    -287727.2    1499.6421   0.62407292     0.601119   0.69651608     1.921708   0.72898302   0.74705607   0.72140646    2.1974455 
    4180   -287591.42         1500   0.62236435   0.61088777   0.70256827    1.9358204   0.72539757   0.74633264    0.7195506    2.1912808 
    4190   -287577.67         1500   0.62202248   0.62226862   0.70770275    1.9519938     0.723929   0.74287839   0.72057669    2.1873841 
    4200   -287569.23         1500     0.621794   0.63461385    0.7118071    1.9682149   0.72280716   0.73931019   0.72188314    2.1840005 
    4210   -287465.55         1500   0.62046884   0.64595152   0.71461724    1.9810376   0.72167964   0.74130061   0.72520262    2.1881829 
    4220   -287383.39         1500   0.61766492   0.65466198    0.7180305    1.9903574   0.71970545   0.74875786   0.72678891    2.1952522 
    4230      -287376    1499.0091   0.61330468   0.65952307   0.72221316    1.9950409   0.71902274   0.76261352   0.72867506    2.2103113 
    4240   -287534.66         1500   0.60793067    0.6588149   0.72638774    1.9931333   0.72244038   0.78739544   0.73446493    2.2443008 
    4250   -287563.12         1500    0.6019766   0.65421508   0.73025811    1.9864498   0.73081918   0.82088995   0.74248345    2.2941926 
    4260   -287572.32         1500   0.59571124   0.64814434   0.73282775    1.9766833   0.74401715   0.85308174   0.74911759    2.3462165 
    4270   -287581.16         1500   0.58974396   0.64335191   0.73389575    1.9669916   0.76043324   0.87459806   0.75161509    2.3866464 
    4280   -287599.97         1500   0.58448419   0.64187649   0.73492265    1.9612833    0.7772931   0.88527251    0.7525324     2.415098 
    4290   -287676.29         1500   0.57955146   0.64365158   0.74035259    1.9635556    0.7914744   0.88679038   0.75109164    2.4293564 
    4300   -287737.97         1500   0.57512654   0.64849619   0.75497436    1.9785971   0.79974781   0.88084219   0.74507936    2.4256694 
    4310   -287662.92         1500   0.57137735   0.65551365   0.76872475    1.9956157   0.79708874   0.87102229    0.7348389    2.4029499 
    4320   -287497.88         1500   0.56810208   0.66363253    0.7794007    2.0111353   0.78394993   0.85780516   0.72311177    2.3648669 
    4330   -287494.55    1499.4376   0.56558874   0.67184337   0.78788057    2.0253127   0.76648628    0.8426545   0.71561445    2.3247552 
    4340    -287775.6         1500   0.56407333    0.6779459   0.79603584    2.0380551   0.75053323   0.82944725   0.71555897    2.2955395 
    4350   -287785.18         1500   0.56376827   0.68256444   0.79923082    2.0455635   0.73972152   0.82413044   0.72437311    2.2882251 
    4360    -287861.9         1500   0.56357598   0.68578925   0.79865856    2.0480238   0.73449857   0.82578506   0.73899498    2.2992786 
    4370   -287960.04         1500   0.56289103   0.68728804   0.79696282    2.0471419   0.73359261   0.83158382   0.75415013    2.3193266 
    4380   -287974.52         1500   0.56236669   0.68797506   0.79636471    2.0467065   0.73718444   0.83770876   0.76401566    2.3389089 
    4390   -287836.56         1500    0.5621712   0.68839792   0.79968334    2.0502525   0.74373948   0.84303811   0.76392655    2.3507041 
    4400   -287711.46         1500    0.5621394   0.68887417   0.80700587    2.0580194   0.74797028   0.84990684   0.75810955    2.3559867 
    4410   -287742.37         1500   0.56125699   0.68985809   0.81539482    2.0665099   0.74876064   0.85975392   0.75293021    2.3614448 
    4420    -287673.8         1500   0.56045442   0.69145948   0.82511257    2.0770265    0.7486422   0.87196475   0.75319661    2.3738036 
    4430   -287786.03         1500   0.56103256   0.69257255   0.83516841    2.0887735   0.75152226   0.88228381   0.75715412    2.3909602 
    4440   -287854.01         1500   0.56295561   0.69273952   0.84256143    2.0982566   0.75847676   0.88955372   0.76100707    2.4090375 
    4450   -287792.44         1500   0.56637409   0.69212275   0.84653364    2.1050305   0.76699504   0.89464403   0.76387093      2.42551 
    4460   -287639.77         1500   0.57068207   0.69094478   0.84980618     2.111433   0.77634326   0.89448762   0.76743724    2.4382681 
    4470   -287666.34         1500   0.57456549   0.68970258   0.85258499    2.1168531   0.78621102   0.88818048   0.77116869    2.4455602 
    4480   -287701.34         1500   0.57775628   0.68875464   0.85253953    2.1190504    0.7931956   0.87815951   0.76956364    2.4409187 
    4490   -287725.64         1500   0.58122973   0.68884655   0.85169501    2.1217713    0.7961581   0.86713432   0.76281101    2.4261034 
    4500   -287721.21    1499.4185   0.58558894   0.69111934   0.84555635    2.1222646   0.79710021   0.85672925    0.7578884    2.4117179 
    4510   -287638.44         1500   0.59061704   0.69392399   0.83508816    2.1196292   0.79702538   0.84876545   0.75847019     2.404261 
    4520   -287522.05         1500   0.59437039   0.69583875   0.82208361    2.1122928   0.79870062   0.84308035   0.76322438    2.4050054 
    4530   -287644.33         1500   0.59666944   0.69629748   0.80980298    2.1027699   0.80496524   0.84031417   0.76996948    2.4152489 
    4540   -287720.04         1500   0.59768022   0.69422762   0.79966718     2.091575   0.81440695   0.84189951   0.77698433    2.4332908 
    4550   -287614.96         1500   0.59695072   0.69018385   0.78978638    2.0769209   0.82294946   0.84543718   0.78262258    2.4510092 
    4560   -287443.06         1500    0.5948422   0.68542732   0.78221527    2.0624848   0.83030275   0.84703124   0.78361908    2.4609531 
    4570   -287596.15         1500   0.59210093   0.68073945   0.77723466     2.050075   0.83357571   0.84763634   0.77927067    2.4604827 
    4580   -287694.11         1500   0.58942977   0.67809887   0.77503334     2.042562   0.83089632   0.84870012   0.77097677    2.4505732 
    4590   -287576.79         1500   0.58718695   0.67786153   0.77549525    2.0405437   0.82526929    0.8498986   0.75779444    2.4329623 
    4600   -287458.34         1500   0.58589479   0.67908015   0.77751704     2.042492   0.81928946   0.85052683   0.73883395    2.4086502 
    4610   -287496.81         1500   0.58545444   0.68088034   0.77960031    2.0459351   0.81657812      0.85045   0.71426813    2.3812963 
    4620   -287625.08         1500   0.58412762   0.68228182   0.78071711    2.0471265   0.81847025   0.85187782   0.69247036    2.3628184 
    4630   -287673.23         1500     0.581011   0.68353093   0.78135804       2.0459   0.82549392   0.85537644   0.68337938    2.3642497 
    4640   -287689.33         1500   0.57793364   0.68454599   0.78334458    2.0458242   0.83495458   0.86166211   0.68907981    2.3856965 
    4650   -287614.85         1500    0.5753745   0.68566515   0.78574228    2.0467819   0.84286266   0.87091437   0.70623774    2.4200148 
    4660   -287641.03         1500    0.5725637   0.68781671   0.78707245    2.0474529   0.84654005   0.87920007   0.72935153    2.4550917 
    4670   -287729.65         1500   0.56921758   0.69109884   0.78634465    2.0466611   0.84709387   0.88355975   0.75230647    2.4829601 
    4680   -287857.57         1500   0.56595751   0.69517344   0.78267759    2.0438085   0.84916983   0.88447704   0.77187068    2.5055175 
    4690    -287907.1         1500   0.56374494   0.70076671   0.77574376    2.0402554   0.85361291   0.88617919   0.78812594     2.527918 
    4700   -287854.68         1500   0.56362788   0.70832833   0.76721872    2.0391749    0.8585313   0.89061322   0.79784857    2.5469931 
    4710   -287823.49         1500   0.56598686   0.71658659   0.76218427    2.0447577   0.86370695   0.89679193   0.80024164    2.5607405 
    4720   -287776.91         1500   0.57076139   0.72472562   0.76053315    2.0560202   0.87068932   0.89805688   0.79804069    2.5667869 
    4730   -287762.28         1500   0.57747898   0.73203502   0.75665211    2.0661661    0.8764253   0.89611784    0.7948127    2.5673558 
    4740   -287725.43         1500   0.58537298   0.73897684   0.75162196    2.0759718   0.88013701   0.89559332   0.79630054    2.5720309 
    4750   -287494.84         1500   0.59427006   0.74553557   0.75025988    2.0900655   0.88228947   0.89690861   0.80024397    2.5794421 
    4760   -287282.13         1500   0.60387705   0.75168315   0.75225403    2.1078142    0.8830862   0.90007534   0.80626375    2.5894253 
    4770   -287079.02         1500   0.61398931    0.7561911   0.75778007    2.1279605   0.88299673   0.90740881   0.81341241    2.6038179 
    4780   -287244.26         1500   0.62419715   0.75842651    0.7648482    2.1474719   0.88569955   0.92110239   0.82081342    2.6276154 
    4790    -287476.8         1500   0.63318793   0.75787338   0.77395176    2.1650131   0.88980376   0.93954536    0.8268401    2.6561892 
    4800   -287599.89         1500   0.64076189   0.75569897   0.78338293    2.1798438   0.89791917   0.95808427   0.83096699    2.6869704 
    4810   -287566.37         1500    0.6480418   0.75212685   0.79148957    2.1916582       0.9065    0.9747946   0.83340973    2.7147043 
    4820   -287410.77         1500   0.65555158    0.7481373   0.79675816     2.200447   0.91306604   0.98824545   0.83617425    2.7374857 
    4830   -287364.31         1500   0.66231736   0.74436859   0.80317368    2.2098596   0.91508048   0.99573378   0.84047516    2.7512894 
    4840   -287535.59         1500   0.66910859   0.74170132   0.81037558    2.2211855   0.91236801   0.99645805   0.84605235    2.7548784 
    4850   -287567.99         1500   0.67574137   0.74015547   0.81670411    2.2326009   0.90619766   0.99306379   0.85456365    2.7538251 
    4860   -287523.02         1500   0.68065544    0.7400061   0.82042696    2.2410885   0.90022712   0.98679509   0.86565874    2.7526809 
    4870   -287487.49         1500   0.68405679   0.74050947   0.82021238    2.2447786   0.89663644   0.97694376   0.87919191    2.7527721 
    4880   -287386.07         1500   0.68607357   0.74162453   0.82458285     2.252281   0.89644343   0.96732947   0.89035198    2.7541249 
    4890   -287215.16         1500   0.68613603   0.74237096   0.82949845    2.2580054   0.90108661   0.96189666   0.89481122    2.7577945 
    4900    -287086.1         1500   0.68584067   0.74302663   0.83299014    2.2618574   0.90992829   0.95976236   0.89333506    2.7630257 
    4910   -287129.45         1500   0.68569868   0.74446881   0.83576029    2.2659278   0.92095274   0.95926242   0.88655709    2.7667723 
    4920   -287396.48         1500   0.68611439   0.74653876   0.83823743    2.2708906   0.93009393    0.9588147   0.87712106    2.7660297 
    4930   -287590.34         1500   0.68804196   0.74866113   0.84409218    2.2807953   0.93269038   0.95420888   0.87005828    2.7569575 
    4940   -287532.48         1500   0.69133094   0.75051001   0.85137555    2.2932165   0.92731097   0.94390316   0.86902841    2.7402425 
    4950   -287475.73         1500    0.6945268   0.75301514   0.85710099    2.3046429    0.9160901   0.93370448   0.87641493    2.7262095 
    4960   -287226.91         1500   0.69826829   0.75494258   0.86091307    2.3141239   0.90296654   0.92347303   0.89057218    2.7170117 
    4970   -287205.45         1500   0.70196507   0.75537883   0.86332179    2.3206657   0.89376186   0.91403774   0.90738969    2.7151893 
    4980   -287352.69         1500   0.70411251   0.75476846   0.86681661    2.3256976   0.89093285   0.90662717   0.92102745    2.7185875 
    4990   -287450.61         1500   0.70413127   0.75355869   0.87202141    2.3297114   0.89607087   0.90244405   0.92821695    2.7267319 
    5000   -287346.09         1500   0.70327786   0.75247305   0.87987386    2.3356248   0.90514755    0.9018472   0.92995572    2.7369505 
    5010   -287333.02         1500   0.70196854   0.75198829   0.88539638    2.3393532   0.91303094   0.90463722    0.9290501    2.7467183 
    5020   -287393.29         1500    0.6995341   0.75246937   0.88726535    2.3392688    0.9160621     0.910373   0.92850884    2.7549439 
    5030   -287450.75         1500   0.69688319   0.75487575   0.88868407     2.340443   0.91338567   0.91668121   0.93162723    2.7616941 
    5040   -287525.13         1500    0.6947492   0.76021359   0.88613846    2.3411012   0.90745631   0.92060604   0.93774166     2.765804 
    5050   -287581.68         1500   0.69255576   0.76898656    0.8880397     2.349582   0.90363761    0.9210713   0.94612487    2.7708338 
    5060   -287413.46         1500   0.69042773   0.77915678   0.88704372    2.3566282   0.90368902   0.91890206   0.95752832    2.7801194 
    5070   -287212.53         1500   0.68907122   0.78955736     0.885363    2.3639916   0.90507584   0.91478847    0.9700016    2.7898659 
    5080    -287205.2    1499.0642   0.68788992   0.79960337   0.88463038    2.3721237   0.90172152   0.91104474   0.98269768    2.7954639 
    5090   -287384.98         1500   0.68655718   0.80974621   0.88508313    2.3813865   0.89550906   0.91248436   0.99412888    2.8021223 
    5100   -287399.64         1500   0.68432364   0.81924128   0.89366267    2.3972276   0.88859936   0.91912022    1.0009164     2.808636 
    5110   -287238.59         1500   0.68202873   0.82672373   0.91012968    2.4188821   0.88183697    0.9291091    1.0004496    2.8113957 
    5120   -287315.07         1500   0.67979329   0.83258224   0.93150134    2.4438769   0.87367906   0.94044008   0.99797463    2.8120938 
    5130   -287427.01         1500   0.67735489   0.83664185   0.94940238    2.4633991   0.86932535   0.95136771   0.99699045    2.8176835 
    5140   -287301.87         1500   0.67441259   0.83922078   0.96292602    2.4765594   0.87170609   0.95877644   0.99534492    2.8258275 
    5150   -287028.17         1500   0.67221124   0.84151449   0.97089187    2.4846176   0.88142984   0.96159277   0.99385885    2.8368815 
    5160   -286948.99         1500   0.67067795   0.84284064    0.9701263    2.4836449   0.89759349   0.96008549   0.99202811    2.8497071 
    5170    -286994.6         1500   0.67037214   0.84365366   0.96184046    2.4758663   0.91281587   0.95690914   0.98821139    2.8579364 
    5180   -287070.62         1500   0.67199516   0.84321594   0.95101628    2.4662274   0.91712917   0.95611657   0.98354308    2.8567888 
    5190   -287055.76         1500   0.67616442   0.84280664   0.94531708    2.4642881   0.90919977   0.95735945   0.97789554    2.8444548 
    5200   -286999.85         1500   0.68156668   0.84338046   0.94464946    2.4695966   0.89170287   0.96202908   0.97311291    2.8268449 
    5210   -287111.07         1500   0.68778787   0.84623727   0.94362164    2.4776468   0.87220426   0.97131561   0.96872127    2.8122411 
    5220   -287295.99         1500    0.6934917   0.84962222   0.94241054    2.4855245   0.85451745   0.98307674    0.9655381    2.8031323 
    5230   -287403.23         1500   0.69861309   0.85342761   0.94081122    2.4928519    0.8444981   0.99162601   0.96411396    2.8002381 
    5240   -287396.19    1499.2163   0.70360331   0.85913907   0.93947641    2.5022188   0.84157135   0.99390704   0.96355306    2.7990315 
    5250   -287366.34         1500   0.70824066   0.86661061   0.93797696    2.5128282   0.84226156   0.99028614   0.95919345    2.7917412 
    5260   -287230.23         1500   0.71163648   0.87483076   0.93208452    2.5185518   0.84416799   0.98352876   0.95224962    2.7799464 
    5270   -287268.47         1500   0.71392127   0.88234945   0.92211708    2.5183878   0.84863979   0.97653155   0.94422226    2.7693936 
    5280   -287262.88    1499.3318   0.71389213   0.88878282   0.91373206     2.516407   0.85568405   0.97514399   0.93537879    2.7662068 
    5290   -287413.86         1500   0.71205346   0.89229195    0.9053115    2.5096569   0.86079851   0.98199056   0.92769148    2.7704805 
    5300   -287430.38         1500   0.70892608    0.8926035   0.89940185    2.5009314    0.8643583   0.99824349   0.92673803    2.7893398 
    5310   -287540.75         1500    0.7055571   0.88884041   0.89561936    2.4900169   0.86525276    1.0153465   0.93382202    2.8144213 
    5320   -287574.59         1500   0.70287649   0.88082537   0.89507623    2.4787781    0.8647961    1.0281529   0.94548913    2.8384381 
    5330    -287612.8         1500   0.70018507   0.87007494   0.89785902     2.468119   0.86298223    1.0365064   0.96062305    2.8601117 
    5340   -287657.12         1500   0.69654351   0.85755151   0.90536598     2.459461   0.85812397    1.0381869    0.9787901     2.875101 
    5350   -287542.17         1500   0.69260819   0.84515926   0.91484567    2.4526131   0.85242214    1.0332138   0.99490133    2.8805373 
    5360   -287456.73         1500   0.68880279   0.83473457   0.92460283    2.4481402   0.85277278    1.0269252    1.0044778    2.8841758 
    5370   -287413.03         1500   0.68489602   0.82612591   0.93214654    2.4431685    0.8597504    1.0223252    1.0044196    2.8864952 
    5380   -287306.02         1500   0.68210092   0.81903115   0.93565304    2.4367851   0.87303794    1.0213541   0.99307917    2.8874712 
    5390   -287114.15         1500   0.68135743   0.81292365   0.93609366    2.4303747    0.8919196     1.026756   0.97424825    2.8929239 
    5400   -287034.61         1500    0.6835409   0.80939015   0.93062965    2.4235607   0.91258145     1.036137   0.95734651     2.906065 
    5410   -287248.93         1500   0.68767126   0.80777542   0.92623893    2.4216856   0.93146193    1.0495699   0.95039985    2.9314317 
    5420   -287221.29         1500   0.69244124   0.80711962   0.91946239    2.4190233   0.94980346    1.0646362   0.95291589    2.9673556 
    5430   -287212.73         1500   0.69645268   0.80652214   0.92013682    2.4231116   0.96231189    1.0778664   0.96301809    3.0031964 
    5440   -287301.91         1500   0.70094871   0.80680594   0.91627545    2.4240301   0.96680134    1.0948026   0.97951269    3.0411166 
    5450   -287235.91         1500   0.70539071   0.80863545   0.91307553    2.4271017   0.96413889      1.11556    1.0008749    3.0805738 
    5460   -287219.62         1500   0.70885771     0.811052   0.90758359    2.4274933   0.95498951    1.1317635     1.020644     3.107397 
    5470   -287176.87         1500   0.71119539   0.81366559    0.9007488    2.4256098   0.94298023    1.1370674    1.0353251    3.1153727 
    5480   -287163.16         1500   0.71220366   0.81674756   0.89742541    2.4263766   0.93351825    1.1280174    1.0460467    3.1075824 
    5490    -287268.5         1500   0.71159867   0.81990646   0.89621705    2.4277222    0.9274322    1.1081724    1.0542085    3.0898131 
    5500   -287441.41         1500   0.70878217   0.82254016   0.90015224    2.4314746    0.9211395    1.0888463    1.0578102    3.0677959 
    5510   -287441.49    1500.0457   0.70493808   0.82421698   0.90942428    2.4385793   0.91354581    1.0814329    1.0580769    3.0530557 
    5520    -287482.6         1500    0.7018596   0.82486116   0.92095679    2.4476776   0.90874528    1.0867262    1.0571077    3.0525792 
    5530   -287558.57         1500   0.70099201   0.82474456   0.93530155    2.4610381   0.90860716    1.0991919    1.0578556    3.0656546 
    5540   -287539.85         1500   0.70303462    0.8236763   0.94614029    2.4728512   0.91247551    1.1132774    1.0608669    3.0866197 
    5550   -287381.28         1500   0.70693677    0.8210394   0.95137838    2.4793545   0.91703431    1.1259443    1.0678943    3.1108729 
    5560   -287421.91         1500   0.71207733   0.81781453   0.95293859    2.4828304   0.92568202    1.1325525    1.0749592    3.1331937 
    5570   -287416.97    1499.3375   0.71755133   0.81465099   0.95502517    2.4872275   0.93980333    1.1335822    1.0755316    3.1489172 
    5580   -287377.66         1500   0.72298979   0.81200423   0.95899343    2.4939875   0.95281238    1.1331687    1.0725785    3.1585596 
    5590   -287407.24         1500   0.72805331   0.81045458   0.96412539    2.5026333   0.96228039    1.1322545    1.0665899    3.1611248 
    5600    -287371.7         1500   0.73366562   0.81100739   0.96929358    2.5139666   0.96934487    1.1334133    1.0599723    3.1627304 
[...]
   18690   -288834.04         1500     3.784715    2.9645512    3.0313299    9.7805962    4.1538374    3.7981263    3.2948306    11.246794 
   18700   -288842.23         1500    3.7935655    2.9749138     3.053134    9.8216133    4.1423798     3.795013    3.2766654    11.214058 
   18710   -289008.21         1500    3.8065648    2.9811699    3.0625319    9.8502666    4.1290046    3.7968344    3.2694498    11.195289 
   18720   -289078.28         1500    3.8222005    2.9844387    3.0707883    9.8774274    4.1208857    3.7982151    3.2754059    11.194507 
   18730   -289125.83         1500    3.8374347    2.9857613    3.0677148    9.8909108     4.112772    3.7987368    3.2913128    11.202822 
   18740    -289303.2         1500    3.8464556    2.9867507    3.0537021    9.8869085    4.0971265    3.7969228    3.3164342    11.210483 
   18750   -289216.54         1500    3.8475348    2.9898143    3.0337881    9.8711372    4.0811599    3.7934516    3.3334005    11.208012 
   18760   -288931.15         1500    3.8422473    2.9974519    3.0144435    9.8541427    4.0645267    3.7889052    3.3381025    11.191534 
   18770   -288739.08         1500    3.8331808    3.0110282    2.9996962    9.8439052    4.0525236    3.7897842    3.3390474    11.181355 
   18780   -288721.48         1500     3.822952    3.0281207    2.9897565    9.8408292    4.0503747    3.7900316    3.3293154    11.169722 
   18790   -288749.18         1500    3.8120815    3.0446794    2.9846919    9.8414528    4.0535359    3.7820618    3.3203822     11.15598 
   18800   -288849.37         1500    3.8038653    3.0571423    2.9825927    9.8436003    4.0574614    3.7699588     3.306823    11.134243 
   18810   -288880.77         1500    3.7995966    3.0633049    2.9848669    9.8477684    4.0595151    3.7631042    3.2958482    11.118468 
   18820   -288886.92    1500.9007    3.7979031    3.0637139    2.9919332    9.8535502    4.0582124    3.7627187    3.2878095    11.108741 
   18830   -288991.34         1500    3.7975969    3.0596149    2.9977687    9.8549806    4.0606918    3.7656328    3.2786764    11.105001 
   18840   -288978.09         1500      3.79761    3.0543921    3.0007313    9.8527333    4.0676383    3.7709103    3.2754815     11.11403 
   18850   -288943.21         1500    3.7946697    3.0491933    3.0044974    9.8483604    4.0733743    3.7760708    3.2798615    11.129307 
   18860   -289002.46         1500    3.7912746      3.04445    3.0059715    9.8416961    4.0770651    3.7858852    3.2927323    11.155683 
   18870   -289130.58         1500    3.7912079    3.0395771    3.0016848    9.8324699    4.0734932     3.792008     3.318493    11.183994 
   18880   -289149.49         1500    3.7954835    3.0328107    2.9932571    9.8215514    4.0677958    3.7911192    3.3462963    11.205211 
   18890   -289046.81         1500     3.804209    3.0237896    2.9837134     9.811712    4.0712088    3.7811839    3.3736274     11.22602 
   18900   -288949.19         1500    3.8168087    3.0090877     2.974598    9.8004943    4.0811915    3.7651353    3.3974256    11.243752 
   18910   -288866.29         1500    3.8336593    2.9854435    2.9716802     9.790783    4.0885746    3.7541041    3.4108035    11.253482 
   18920   -288978.72         1500    3.8529808    2.9557685     2.975764    9.7845133    4.0957514    3.7528548    3.4089923    11.257599 
   18930   -289044.04         1500    3.8703402    2.9262312    2.9841479    9.7807192    4.0986015    3.7459333    3.3972149     11.24175 
   18940   -288862.44         1500    3.8863287    2.8987402    2.9943184    9.7793872    4.0926144    3.7340888    3.3797196    11.206423 
   18950   -288718.97         1500    3.8996508    2.8761288    3.0052414     9.781021    4.0789169    3.7208902    3.3581879    11.157995 
   18960   -288636.41         1500    3.9093729     2.860608     3.019417    9.7893979    4.0618962    3.6995203    3.3412403    11.102657 
   18970   -288717.06         1500    3.9138232    2.8539697    3.0376085    9.8054014    4.0529868    3.6776968    3.3384092    11.069093 
   18980   -288633.25         1500    3.9122419    2.8531273    3.0508236    9.8161928    4.0580296    3.6567514    3.3444173    11.059198 
   18990   -288529.39         1500    3.9049346    2.8548813     3.062711    9.8225269    4.0727177    3.6472409    3.3558397    11.075798 
   19000   -288540.23         1500    3.8942807    2.8598556    3.0759659    9.8301022    4.0994527    3.6510456    3.3666789    11.117177 
   19010   -288648.71         1500     3.882222    2.8674725    3.0885466    9.8382411    4.1316513    3.6608806    3.3763043    11.168836 
   19020   -288800.52         1500    3.8738856    2.8781826    3.0978781    9.8499463    4.1551772    3.6698374    3.3846903    11.209705 
   19030   -289016.39         1500    3.8711222    2.8915354     3.103744    9.8664016    4.1714846     3.671819    3.3944018    11.237705 
   19040   -289021.15     1500.738    3.8764274     2.905602    3.1027156     9.884745    4.1759205    3.6668533    3.4095443    11.252318 
   19050      -288869         1500    3.8899099    2.9194885    3.0966775    9.9060759    4.1643387    3.6571076    3.4343272    11.255774 
   19060   -288766.49         1500    3.9088711    2.9340673    3.0981055    9.9410438    4.1418309    3.6510278    3.4573075    11.250166 
   19070   -288605.68         1500    3.9286084    2.9497607    3.0988916    9.9772607    4.1197275    3.6528537    3.4722054    11.244787 
   19080   -288557.67         1500    3.9440688     2.967035    3.0997253    10.010829    4.1069242    3.6579537    3.4719918     11.23687 
   19090    -288770.8         1500    3.9516162    2.9830968    3.0975716    10.032285    4.1072479    3.6605163     3.458616     11.22638 
   19100   -288921.17         1500    3.9508575    2.9961721    3.0966705      10.0437    4.1174454    3.6675255    3.4441114    11.229082 
   19110   -288947.34         1500    3.9459386    3.0047747    3.0912263     10.04194     4.133812    3.6737715    3.4285767     11.23616 
   19120   -288874.79         1500    3.9402235    3.0095671    3.0803921    10.030183    4.1511711     3.681445    3.4176164    11.250233 
   19130    -288931.1         1500    3.9340357    3.0115062    3.0653874    10.010929     4.158168    3.6912626    3.4182965    11.267727 
   19140   -288991.78         1500    3.9291963    3.0119843    3.0525806    9.9937613    4.1518418    3.7042981    3.4295142    11.285654 
   19150   -289096.89         1500     3.925164    3.0138547    3.0457344    9.9847531    4.1460761    3.7131946    3.4488211    11.308092 
   19160    -289136.2         1500     3.923078    3.0155673    3.0512715    9.9899168    4.1551224    3.7102631    3.4663339    11.331719 
   19170   -289136.06    1499.8537    3.9236941    3.0168987    3.0644893    10.005082    4.1777558    3.6971812    3.4788287    11.353766 
   19180   -288937.09         1500     3.925055    3.0183583    3.0797204    10.023134    4.2016549    3.6808239    3.4895146    11.371993 
   19190   -288669.03         1500    3.9277893     3.019948    3.0921195    10.039857    4.2219456    3.6674359    3.4976065    11.386988 
   19200   -288767.18         1500    3.9291798    3.0215855    3.0981407    10.048906    4.2375488    3.6711546    3.5033028    11.412006 
   19210   -288929.48         1500    3.9302564    3.0230119    3.0992172    10.052486    4.2493122    3.6954098    3.5027277     11.44745 
   19220   -288935.39    1500.8196    3.9319158    3.0216549    3.0986392     10.05221    4.2610377    3.7349458    3.4980389    11.494022 
   19230   -289005.04         1500    3.9335642    3.0151233    3.1022525     10.05094    4.2708595    3.7838152    3.4936885    11.548363 
   19240   -288999.39    1499.2178    3.9366161    3.0054132    3.1052575    10.047287    4.2726318    3.8325657    3.4918301    11.597028 
   19250   -288821.36         1500    3.9411048    2.9950893    3.1010169    10.037211    4.2652456    3.8655751    3.4953815    11.626202 
   19260   -288755.51         1500    3.9464656    2.9866041    3.0907535    10.023823    4.2555573    3.8798959    3.4966977    11.632151 
   19270   -288791.81         1500    3.9491034    2.9815939     3.078476    10.009173    4.2380028    3.8791148    3.4874266    11.604544 
   19280   -288697.12         1500    3.9467188    2.9816103    3.0708295    9.9991587    4.2178012    3.8683115      3.47496    11.561073 
   19290    -288643.4         1500    3.9415593    2.9867627    3.0674529    9.9957749    4.2028622    3.8579693    3.4713721    11.532204 
   19300   -288578.56         1500    3.9373709    2.9936382    3.0720764    10.003085     4.197286     3.850693    3.4813285    11.529308 
   19310   -288448.71         1500    3.9368688    3.0011576    3.0822007    10.020227    4.2014501    3.8369332    3.5023251    11.540708 
   19320   -288547.66         1500    3.9384101    3.0082345    3.0938081    10.040453    4.2168903    3.8173314    3.5302434    11.564465 
   19330   -288798.43         1500    3.9399868    3.0142399    3.1017167    10.055943    4.2452096    3.7940902    3.5581535    11.597453 
   19340   -288967.51         1500    3.9426601    3.0185705    3.1028728    10.064103    4.2701474    3.7730081    3.5847781    11.627934 
   19350   -288918.42         1500    3.9461761    3.0222436    3.0973154    10.065735    4.2788088    3.7693267    3.6026267    11.650762 
   19360   -288855.69         1500    3.9486161    3.0248376    3.0877037    10.061157    4.2743273    3.7914635    3.6100748    11.675866 
   19370   -288889.71         1500    3.9489735    3.0249773    3.0783075    10.052258     4.264647    3.8372031    3.6110703     11.71292 
   19380   -288758.42         1500    3.9495799    3.0243134    3.0706248    10.044518    4.2535346    3.8879652    3.6023571    11.743857 
   19390   -288574.23         1500    3.9528559    3.0244563    3.0668358    10.044148    4.2386701    3.9284969    3.5833302    11.750497 
   19400   -288692.05         1500    3.9560277    3.0238268    3.0686829    10.048537    4.2240224    3.9450606    3.5610995    11.730182 
   19410   -288776.99         1500    3.9571343    3.0218949    3.0782537    10.057283    4.2124617    3.9327736     3.543518    11.688753 
   19420   -288952.18         1500    3.9550749    3.0190502    3.0911444    10.065269    4.1994583    3.9067605    3.5319414     11.63816 
   19430   -289018.36         1500    3.9479241    3.0142471     3.103812    10.065983    4.1911248    3.8846261    3.5262912    11.602042 
   19440   -288984.26         1500    3.9347605    3.0068489    3.1154655    10.057075    4.1940266    3.8740821    3.5277394    11.595848 
   19450   -289086.79         1500     3.917784    2.9998812     3.125229    10.042894    4.2081701    3.8736249    3.5356005    11.617395 
   19460   -289137.63         1500    3.8978252    2.9936394    3.1289904    10.020455    4.2279342    3.8785499    3.5480838    11.654568 
   19470   -289010.69         1500     3.877313     2.988864    3.1280045    9.9941814    4.2469321    3.8855877    3.5572302     11.68975 
   19480   -288956.97         1500    3.8579785    2.9858668    3.1349898    9.9788352    4.2568215    3.8910383    3.5554574    11.703317 
   19490    -289064.4         1500    3.8390568    2.9877138    3.1365375    9.9633081    4.2509176    3.8974796    3.5428596    11.691257 
   19500   -289000.45         1500     3.820666    2.9939089    3.1383165    9.9528914    4.2358053    3.9007551    3.5247603    11.661321 
   19510   -288960.18         1500    3.8035132    3.0014032    3.1360974    9.9410138    4.2153865    3.8945264     3.508289    11.618202 
   19520   -288870.66         1500    3.7887504    3.0096989    3.1313044    9.9297537     4.193092    3.8776257     3.500788    11.571506 
   19530   -288695.27         1500    3.7765508    3.0200028    3.1251199    9.9216735     4.175222    3.8608082    3.5059232    11.541953 
   19540   -288611.04         1500    3.7672106    3.0320452    3.1327786    9.9320344    4.1588109    3.8493623    3.5216501    11.529823 
   19550   -288691.38         1500    3.7607303    3.0434236    3.1475886    9.9517424    4.1402534    3.8519378    3.5436032    11.535794 
   19560   -288746.33         1500    3.7569321    3.0525292    3.1619341    9.9713955     4.112436    3.8666035    3.5675104     11.54655 
   19570   -288897.74         1500    3.7557698    3.0580525    3.1804247     9.994247    4.0772451    3.8843635    3.5863723    11.547981 
   19580   -289004.43         1500    3.7562412    3.0601069    3.2027829    10.019131    4.0442858    3.8979715    3.5920662    11.534324 
   19590   -289005.34    1500.2589    3.7587373    3.0595886    3.2201511    10.038477    4.0296546     3.899556    3.5860323    11.515243 
   19600   -289029.94         1500    3.7643133    3.0590021    3.2323995    10.055715    4.0367474    3.8935937    3.5707366    11.501078 
   19610   -289007.08         1500    3.7742536    3.0625598    3.2404114    10.077225    4.0598885    3.8876075     3.545563    11.493059 
   19620   -289012.02    1500.5527    3.7855769    3.0706937    3.2456201    10.101891    4.0931493    3.8795603    3.5224404     11.49515 
   19630   -288991.06         1500    3.7975832    3.0838158    3.2453228    10.126722    4.1234395    3.8634318     3.505459     11.49233 
   19640   -289053.95         1500    3.8110054    3.0983281    3.2404083    10.149742    4.1428046    3.8487685    3.4977062    11.489279 
   19650   -289062.03         1500    3.8238676    3.1105409    3.2415563    10.175965    4.1558003      3.84524    3.4988052    11.499846 
   19660   -288818.13         1500    3.8341285    3.1186529    3.2463037    10.199085    4.1685434      3.84471    3.5090714    11.522325 
   19670   -288832.36         1500    3.8402871    3.1221406    3.2486038    10.211032    4.1853297     3.843143     3.523978    11.552451 
   19680   -289014.28         1500    3.8419056    3.1238487    3.2473178    10.213072    4.2019465    3.8457551    3.5327716    11.580473 
   19690   -289037.13         1500    3.8417996    3.1257078    3.2424047    10.209912    4.2118387     3.855802    3.5279647    11.595605 
   19700   -288851.71         1500    3.8428735    3.1264456    3.2352343    10.204553     4.219667    3.8642333    3.5136648    11.597565 
   19710   -288680.98         1500    3.8468045    3.1252754    3.2323989    10.204479    4.2270107    3.8755813     3.501249    11.603841 
   19720   -288605.61         1500    3.8552074    3.1235267    3.2346081    10.213342    4.2369913    3.8853407    3.4961575     11.61849 
   19730   -288466.12         1500    3.8680816     3.123812    3.2423821    10.234276    4.2520614    3.8907899    3.4996156    11.642467 
   19740   -288471.56    1500.8198    3.8843316    3.1264252    3.2493907    10.260148    4.2711793    3.8898369    3.5097831    11.670799 
   19750   -288551.52         1500    3.9036537    3.1314063    3.2548648    10.289925    4.2862125    3.8852777    3.5334557    11.704946 
   19760   -288652.66         1500    3.9240305    3.1374371    3.2574872    10.318955    4.2975632    3.8708246    3.5695788    11.737967 
   19770   -288758.66         1500    3.9442465    3.1417876    3.2565606    10.342595    4.3046795    3.8534456    3.6125533    11.770678 
   19780   -288736.67         1500    3.9639097    3.1453918    3.2526581     10.36196    4.3060838    3.8379094     3.652186    11.796179 
   19790   -288654.23         1500    3.9808928    3.1485396    3.2432116    10.372644    4.3003932     3.827495    3.6893653    11.817254 
   19800    -288707.9         1500    3.9930429    3.1531379    3.2428177    10.388998    4.2919225    3.8253079    3.7238577    11.841088 
   19810   -288859.21         1500    3.9999036    3.1585505    3.2550537    10.413508    4.2837905    3.8214136     3.748473    11.853677 
   19820   -289100.56         1500    4.0035402    3.1647834    3.2735276    10.441851    4.2803109    3.8149883    3.7613846    11.856684 
   19830   -289142.26         1500    4.0051588    3.1708114    3.2987894     10.47476    4.2895657    3.8092781    3.7606187    11.859463 
   19840   -289043.37         1500    4.0054878    3.1774967    3.3249388    10.507923     4.309102    3.8074666    3.7492053    11.865774 
   19850   -289052.65         1500    4.0057434    3.1852054    3.3432233    10.534172    4.3271503    3.8044135    3.7306982    11.862262 
   19860   -289079.09         1500    4.0051308    3.1929975    3.3532538    10.551382    4.3369025    3.8006484    3.7134706    11.851021 
   19870   -289032.41         1500    4.0006084     3.198153    3.3567833    10.555545    4.3370958    3.7959609     3.707266    11.840323 
   19880   -288847.15         1500    3.9923197    3.2005519    3.3536701    10.546542    4.3264856    3.7968149    3.7136712    11.836972 
   19890    -288797.9         1500    3.9812578     3.200519     3.348769    10.530546    4.3079601    3.8043189     3.730774    11.843053 
   19900   -288775.29         1500     3.968724    3.1997564    3.3454969    10.513977    4.2920945    3.8165367    3.7563264    11.864958 
   19910   -288748.71         1500    3.9554555    3.1977427     3.346644    10.499842    4.2858178    3.8292248    3.7894938    11.904536 
   19920   -288863.82         1500    3.9447319    3.1956709    3.3569167     10.49732    4.2916297    3.8425093    3.8211804    11.955319 
   19930   -288810.32         1500    3.9400147    3.1926766    3.3671992     10.49989    4.3019231    3.8521406    3.8443728    11.998437 
   19940   -288770.23         1500     3.939842    3.1889888    3.3771425    10.505973    4.3151095    3.8518045    3.8629426    12.029857 
   19950   -288789.19         1500    3.9433569    3.1849162    3.3864268      10.5147    4.3315006    3.8446026    3.8691248    12.045228 
   19960   -288970.35         1500    3.9494535    3.1808999    3.3961613    10.526515    4.3436545    3.8372693    3.8564109    12.037335 
   19970   -289122.51         1500     3.955619    3.1789782    3.4062143    10.540812      4.34485    3.8280979    3.8316945    12.004642 
   19980   -289223.58         1500    3.9584631    3.1769653    3.4139106    10.549339    4.3415617    3.8198671    3.8019169    11.963346 
   19990   -289122.57         1500    3.9585616     3.174352    3.4143986    10.547312    4.3417874    3.8100748    3.7678788    11.919741 
   20000   -288997.51         1500    3.9565024    3.1719651    3.4070551    10.535523    4.3472934    3.7981906    3.7356811    11.881165 
   20010   -288957.49         1500     3.952686    3.1694645    3.3947742    10.516925    4.3544693    3.7861844    3.7138667     11.85452 
   20020   -288929.08         1500    3.9448496    3.1678696    3.3801878    10.492907    4.3601379    3.7826244    3.7060023    11.848765 
   20030   -288852.67         1500    3.9341778    3.1709528    3.3674633    10.472594    4.3592579    3.7945195    3.7072669    11.861044 
   20040   -288821.82         1500    3.9210959    3.1798196    3.3596291    10.460545     4.348144    3.8148436    3.7141495    11.877137 
   20050   -288871.98         1500    3.9062145     3.193137    3.3551195    10.454471    4.3308312    3.8320542    3.7282256    11.891111 
   20060   -289013.16         1500    3.8902331    3.2074673    3.3543091    10.452009    4.3175279    3.8430408    3.7457965    11.906365 
   20070   -289139.93         1500    3.8740271    3.2216828    3.3568586    10.452568    4.3138164    3.8510082    3.7576161    11.922441 
srun: Job step aborted: Waiting up to 32 seconds for job step to finish.
slurmstepd: error: *** STEP 29864.0 ON host9 CANCELLED AT 2019-10-08T23:42:56 DUE TO TIME LIMIT ***
slurmstepd: error: *** JOB 29864 ON host9 CANCELLED AT 2019-10-08T23:42:56 DUE TO TIME LIMIT ***
   20080   -289205.96         1500    3.8583316    3.2337812    3.3611292    10.453242    4.3167955    srun: got SIGCONT
srun: forcing job termination
