LAMMPS (7 Aug 2019)
Created orthogonal box = (0 0 0) to (18.5604 42.4 40)
  2 by 4 by 4 MPI processor grid
Reading data file ...
  orthogonal box = (0 0 -0.171776) to (18.5604 42.4 41.6292)
  2 by 4 by 4 MPI processor grid
  reading atoms ...
  2577 atoms
  reading velocities ...
  2577 velocities
  read_data CPU = 0.0109773 secs
719 atoms in group boundary
Reading potential file ffield.reax.Fe_O_C_H with DATE: 2011-02-18
ERROR: Illegal compute reduce command (../compute_reduce.cpp:52)
Last command: compute		meandisp all reduce c_atomdisp
srun: error: host4: tasks 0-31: Exited with exit code 1
srun: Terminating job step 29858.0
